%VERSION  VERSION_STAMP = V0001.000  DATE = 03/03/25  11:45:14                  
%FLAG TITLE                                                                     
%FORMAT(20a4)                                                                   
default_name                                                                    
%FLAG POINTERS                                                                  
%FORMAT(10I8)                                                                   
    8755      14    6550    2196      14      21      29      31       0       0
   15376    2192    2196      21      31      18      25      13      17       0
       0       0       0       0       0       0       0       0      21       0
    2181
%FLAG ATOM_NAME                                                                 
%FORMAT(20a4)                                                                   
Na+ Cl- Na+ Cl- Na+ Cl- Na+ Cl- Na+ Cl- O6  C6  N1  C2  N2  C3  C1  O2  N3  C4  
C5  N7  C8  N9  H2  H4  H1  H7  H3  H5  H6  O   H1  H2  EPW O   H1  H2  EPW O   
H1  H2  EPW O   H1  H2  EPW O   H1  H2  EPW O   H1  H2  EPW O   H1  H2  EPW O   
H1  H2  EPW O   H1  H2  EPW O   H1  H2  EPW O   H1  H2  EPW O   H1  H2  EPW O   
H1  H2  EPW O   H1  H2  EPW O   H1  H2  EPW O   H1  H2  EPW O   H1  H2  EPW O   
H1  H2  EPW O   H1  H2  EPW O   H1  H2  EPW O   H1  H2  EPW O   H1  H2  EPW O   
H1  H2  EPW O   H1  H2  EPW O   H1  H2  EPW O   H1  H2  EPW O   H1  H2  EPW O   
H1  H2  EPW O   H1  H2  EPW O   H1  H2  EPW O   H1  H2  EPW O   H1  H2  EPW O   
H1  H2  EPW O   H1  H2  EPW O   H1  H2  EPW O   H1  H2  EPW O   H1  H2  EPW O   
H1  H2  EPW O   H1  H2  EPW O   H1  H2  EPW O   H1  H2  EPW O   H1  H2  EPW O   
H1  H2  EPW O   H1  H2  EPW O   H1  H2  EPW O   H1  H2  EPW O   H1  H2  EPW O   
H1  H2  EPW O   H1  H2  EPW O   H1  H2  EPW O   H1  H2  EPW O   H1  H2  EPW O   
H1  H2  EPW O   H1  H2  EPW O   H1  H2  EPW O   H1  H2  EPW O   H1  H2  EPW O   
H1  H2  EPW O   H1  H2  EPW O   H1  H2  EPW O   H1  H2  EPW O   H1  H2  EPW O   
H1  H2  EPW O   H1  H2  EPW O   H1  H2  EPW O   H1  H2  EPW O   H1  H2  EPW O   
H1  H2  EPW O   H1  H2  EPW O   H1  H2  EPW O   H1  H2  EPW O   H1  H2  EPW O   
H1  H2  EPW O   H1  H2  EPW O   H1  H2  EPW O   H1  H2  EPW O   H1  H2  EPW O   
H1  H2  EPW O   H1  H2  EPW O   H1  H2  EPW O   H1  H2  EPW O   H1  H2  EPW O   
H1  H2  EPW O   H1  H2  EPW O   H1  H2  EPW O   H1  H2  EPW O   H1  H2  EPW O   
H1  H2  EPW O   H1  H2  EPW O   H1  H2  EPW O   H1  H2  EPW O   H1  H2  EPW O   
H1  H2  EPW O   H1  H2  EPW O   H1  H2  EPW O   H1  H2  EPW O   H1  H2  EPW O   
H1  H2  EPW O   H1  H2  EPW O   H1  H2  EPW O   H1  H2  EPW O   H1  H2  EPW O   
H1  H2  EPW O   H1  H2  EPW O   H1  H2  EPW O   H1  H2  EPW O   H1  H2  EPW O   
H1  H2  EPW O   H1  H2  EPW O   H1  H2  EPW O   H1  H2  EPW O   H1  H2  EPW O   
H1  H2  EPW O   H1  H2  EPW O   H1  H2  EPW O   H1  H2  EPW O   H1  H2  EPW O   
H1  H2  EPW O   H1  H2  EPW O   H1  H2  EPW O   H1  H2  EPW O   H1  H2  EPW O   
H1  H2  EPW O   H1  H2  EPW O   H1  H2  EPW O   H1  H2  EPW O   H1  H2  EPW O   
H1  H2  EPW O   H1  H2  EPW O   H1  H2  EPW O   H1  H2  EPW O   H1  H2  EPW O   
H1  H2  EPW O   H1  H2  EPW O   H1  H2  EPW O   H1  H2  EPW O   H1  H2  EPW O   
H1  H2  EPW O   H1  H2  EPW O   H1  H2  EPW O   H1  H2  EPW O   H1  H2  EPW O   
H1  H2  EPW O   H1  H2  EPW O   H1  H2  EPW O   H1  H2  EPW O   H1  H2  EPW O   
H1  H2  EPW O   H1  H2  EPW O   H1  H2  EPW O   H1  H2  EPW O   H1  H2  EPW O   
H1  H2  EPW O   H1  H2  EPW O   H1  H2  EPW O   H1  H2  EPW O   H1  H2  EPW O   
H1  H2  EPW O   H1  H2  EPW O   H1  H2  EPW O   H1  H2  EPW O   H1  H2  EPW O   
H1  H2  EPW O   H1  H2  EPW O   H1  H2  EPW O   H1  H2  EPW O   H1  H2  EPW O   
H1  H2  EPW O   H1  H2  EPW O   H1  H2  EPW O   H1  H2  EPW O   H1  H2  EPW O   
H1  H2  EPW O   H1  H2  EPW O   H1  H2  EPW O   H1  H2  EPW O   H1  H2  EPW O   
H1  H2  EPW O   H1  H2  EPW O   H1  H2  EPW O   H1  H2  EPW O   H1  H2  EPW O   
H1  H2  EPW O   H1  H2  EPW O   H1  H2  EPW O   H1  H2  EPW O   H1  H2  EPW O   
H1  H2  EPW O   H1  H2  EPW O   H1  H2  EPW O   H1  H2  EPW O   H1  H2  EPW O   
H1  H2  EPW O   H1  H2  EPW O   H1  H2  EPW O   H1  H2  EPW O   H1  H2  EPW O   
H1  H2  EPW O   H1  H2  EPW O   H1  H2  EPW O   H1  H2  EPW O   H1  H2  EPW O   
H1  H2  EPW O   H1  H2  EPW O   H1  H2  EPW O   H1  H2  EPW O   H1  H2  EPW O   
H1  H2  EPW O   H1  H2  EPW O   H1  H2  EPW O   H1  H2  EPW O   H1  H2  EPW O   
H1  H2  EPW O   H1  H2  EPW O   H1  H2  EPW O   H1  H2  EPW O   H1  H2  EPW O   
H1  H2  EPW O   H1  H2  EPW O   H1  H2  EPW O   H1  H2  EPW O   H1  H2  EPW O   
H1  H2  EPW O   H1  H2  EPW O   H1  H2  EPW O   H1  H2  EPW O   H1  H2  EPW O   
H1  H2  EPW O   H1  H2  EPW O   H1  H2  EPW O   H1  H2  EPW O   H1  H2  EPW O   
H1  H2  EPW O   H1  H2  EPW O   H1  H2  EPW O   H1  H2  EPW O   H1  H2  EPW O   
H1  H2  EPW O   H1  H2  EPW O   H1  H2  EPW O   H1  H2  EPW O   H1  H2  EPW O   
H1  H2  EPW O   H1  H2  EPW O   H1  H2  EPW O   H1  H2  EPW O   H1  H2  EPW O   
H1  H2  EPW O   H1  H2  EPW O   H1  H2  EPW O   H1  H2  EPW O   H1  H2  EPW O   
H1  H2  EPW O   H1  H2  EPW O   H1  H2  EPW O   H1  H2  EPW O   H1  H2  EPW O   
H1  H2  EPW O   H1  H2  EPW O   H1  H2  EPW O   H1  H2  EPW O   H1  H2  EPW O   
H1  H2  EPW O   H1  H2  EPW O   H1  H2  EPW O   H1  H2  EPW O   H1  H2  EPW O   
H1  H2  EPW O   H1  H2  EPW O   H1  H2  EPW O   H1  H2  EPW O   H1  H2  EPW O   
H1  H2  EPW O   H1  H2  EPW O   H1  H2  EPW O   H1  H2  EPW O   H1  H2  EPW O   
H1  H2  EPW O   H1  H2  EPW O   H1  H2  EPW O   H1  H2  EPW O   H1  H2  EPW O   
H1  H2  EPW O   H1  H2  EPW O   H1  H2  EPW O   H1  H2  EPW O   H1  H2  EPW O   
H1  H2  EPW O   H1  H2  EPW O   H1  H2  EPW O   H1  H2  EPW O   H1  H2  EPW O   
H1  H2  EPW O   H1  H2  EPW O   H1  H2  EPW O   H1  H2  EPW O   H1  H2  EPW O   
H1  H2  EPW O   H1  H2  EPW O   H1  H2  EPW O   H1  H2  EPW O   H1  H2  EPW O   
H1  H2  EPW O   H1  H2  EPW O   H1  H2  EPW O   H1  H2  EPW O   H1  H2  EPW O   
H1  H2  EPW O   H1  H2  EPW O   H1  H2  EPW O   H1  H2  EPW O   H1  H2  EPW O   
H1  H2  EPW O   H1  H2  EPW O   H1  H2  EPW O   H1  H2  EPW O   H1  H2  EPW O   
H1  H2  EPW O   H1  H2  EPW O   H1  H2  EPW O   H1  H2  EPW O   H1  H2  EPW O   
H1  H2  EPW O   H1  H2  EPW O   H1  H2  EPW O   H1  H2  EPW O   H1  H2  EPW O   
H1  H2  EPW O   H1  H2  EPW O   H1  H2  EPW O   H1  H2  EPW O   H1  H2  EPW O   
H1  H2  EPW O   H1  H2  EPW O   H1  H2  EPW O   H1  H2  EPW O   H1  H2  EPW O   
H1  H2  EPW O   H1  H2  EPW O   H1  H2  EPW O   H1  H2  EPW O   H1  H2  EPW O   
H1  H2  EPW O   H1  H2  EPW O   H1  H2  EPW O   H1  H2  EPW O   H1  H2  EPW O   
H1  H2  EPW O   H1  H2  EPW O   H1  H2  EPW O   H1  H2  EPW O   H1  H2  EPW O   
H1  H2  EPW O   H1  H2  EPW O   H1  H2  EPW O   H1  H2  EPW O   H1  H2  EPW O   
H1  H2  EPW O   H1  H2  EPW O   H1  H2  EPW O   H1  H2  EPW O   H1  H2  EPW O   
H1  H2  EPW O   H1  H2  EPW O   H1  H2  EPW O   H1  H2  EPW O   H1  H2  EPW O   
H1  H2  EPW O   H1  H2  EPW O   H1  H2  EPW O   H1  H2  EPW O   H1  H2  EPW O   
H1  H2  EPW O   H1  H2  EPW O   H1  H2  EPW O   H1  H2  EPW O   H1  H2  EPW O   
H1  H2  EPW O   H1  H2  EPW O   H1  H2  EPW O   H1  H2  EPW O   H1  H2  EPW O   
H1  H2  EPW O   H1  H2  EPW O   H1  H2  EPW O   H1  H2  EPW O   H1  H2  EPW O   
H1  H2  EPW O   H1  H2  EPW O   H1  H2  EPW O   H1  H2  EPW O   H1  H2  EPW O   
H1  H2  EPW O   H1  H2  EPW O   H1  H2  EPW O   H1  H2  EPW O   H1  H2  EPW O   
H1  H2  EPW O   H1  H2  EPW O   H1  H2  EPW O   H1  H2  EPW O   H1  H2  EPW O   
H1  H2  EPW O   H1  H2  EPW O   H1  H2  EPW O   H1  H2  EPW O   H1  H2  EPW O   
H1  H2  EPW O   H1  H2  EPW O   H1  H2  EPW O   H1  H2  EPW O   H1  H2  EPW O   
H1  H2  EPW O   H1  H2  EPW O   H1  H2  EPW O   H1  H2  EPW O   H1  H2  EPW O   
H1  H2  EPW O   H1  H2  EPW O   H1  H2  EPW O   H1  H2  EPW O   H1  H2  EPW O   
H1  H2  EPW O   H1  H2  EPW O   H1  H2  EPW O   H1  H2  EPW O   H1  H2  EPW O   
H1  H2  EPW O   H1  H2  EPW O   H1  H2  EPW O   H1  H2  EPW O   H1  H2  EPW O   
H1  H2  EPW O   H1  H2  EPW O   H1  H2  EPW O   H1  H2  EPW O   H1  H2  EPW O   
H1  H2  EPW O   H1  H2  EPW O   H1  H2  EPW O   H1  H2  EPW O   H1  H2  EPW O   
H1  H2  EPW O   H1  H2  EPW O   H1  H2  EPW O   H1  H2  EPW O   H1  H2  EPW O   
H1  H2  EPW O   H1  H2  EPW O   H1  H2  EPW O   H1  H2  EPW O   H1  H2  EPW O   
H1  H2  EPW O   H1  H2  EPW O   H1  H2  EPW O   H1  H2  EPW O   H1  H2  EPW O   
H1  H2  EPW O   H1  H2  EPW O   H1  H2  EPW O   H1  H2  EPW O   H1  H2  EPW O   
H1  H2  EPW O   H1  H2  EPW O   H1  H2  EPW O   H1  H2  EPW O   H1  H2  EPW O   
H1  H2  EPW O   H1  H2  EPW O   H1  H2  EPW O   H1  H2  EPW O   H1  H2  EPW O   
H1  H2  EPW O   H1  H2  EPW O   H1  H2  EPW O   H1  H2  EPW O   H1  H2  EPW O   
H1  H2  EPW O   H1  H2  EPW O   H1  H2  EPW O   H1  H2  EPW O   H1  H2  EPW O   
H1  H2  EPW O   H1  H2  EPW O   H1  H2  EPW O   H1  H2  EPW O   H1  H2  EPW O   
H1  H2  EPW O   H1  H2  EPW O   H1  H2  EPW O   H1  H2  EPW O   H1  H2  EPW O   
H1  H2  EPW O   H1  H2  EPW O   H1  H2  EPW O   H1  H2  EPW O   H1  H2  EPW O   
H1  H2  EPW O   H1  H2  EPW O   H1  H2  EPW O   H1  H2  EPW O   H1  H2  EPW O   
H1  H2  EPW O   H1  H2  EPW O   H1  H2  EPW O   H1  H2  EPW O   H1  H2  EPW O   
H1  H2  EPW O   H1  H2  EPW O   H1  H2  EPW O   H1  H2  EPW O   H1  H2  EPW O   
H1  H2  EPW O   H1  H2  EPW O   H1  H2  EPW O   H1  H2  EPW O   H1  H2  EPW O   
H1  H2  EPW O   H1  H2  EPW O   H1  H2  EPW O   H1  H2  EPW O   H1  H2  EPW O   
H1  H2  EPW O   H1  H2  EPW O   H1  H2  EPW O   H1  H2  EPW O   H1  H2  EPW O   
H1  H2  EPW O   H1  H2  EPW O   H1  H2  EPW O   H1  H2  EPW O   H1  H2  EPW O   
H1  H2  EPW O   H1  H2  EPW O   H1  H2  EPW O   H1  H2  EPW O   H1  H2  EPW O   
H1  H2  EPW O   H1  H2  EPW O   H1  H2  EPW O   H1  H2  EPW O   H1  H2  EPW O   
H1  H2  EPW O   H1  H2  EPW O   H1  H2  EPW O   H1  H2  EPW O   H1  H2  EPW O   
H1  H2  EPW O   H1  H2  EPW O   H1  H2  EPW O   H1  H2  EPW O   H1  H2  EPW O   
H1  H2  EPW O   H1  H2  EPW O   H1  H2  EPW O   H1  H2  EPW O   H1  H2  EPW O   
H1  H2  EPW O   H1  H2  EPW O   H1  H2  EPW O   H1  H2  EPW O   H1  H2  EPW O   
H1  H2  EPW O   H1  H2  EPW O   H1  H2  EPW O   H1  H2  EPW O   H1  H2  EPW O   
H1  H2  EPW O   H1  H2  EPW O   H1  H2  EPW O   H1  H2  EPW O   H1  H2  EPW O   
H1  H2  EPW O   H1  H2  EPW O   H1  H2  EPW O   H1  H2  EPW O   H1  H2  EPW O   
H1  H2  EPW O   H1  H2  EPW O   H1  H2  EPW O   H1  H2  EPW O   H1  H2  EPW O   
H1  H2  EPW O   H1  H2  EPW O   H1  H2  EPW O   H1  H2  EPW O   H1  H2  EPW O   
H1  H2  EPW O   H1  H2  EPW O   H1  H2  EPW O   H1  H2  EPW O   H1  H2  EPW O   
H1  H2  EPW O   H1  H2  EPW O   H1  H2  EPW O   H1  H2  EPW O   H1  H2  EPW O   
H1  H2  EPW O   H1  H2  EPW O   H1  H2  EPW O   H1  H2  EPW O   H1  H2  EPW O   
H1  H2  EPW O   H1  H2  EPW O   H1  H2  EPW O   H1  H2  EPW O   H1  H2  EPW O   
H1  H2  EPW O   H1  H2  EPW O   H1  H2  EPW O   H1  H2  EPW O   H1  H2  EPW O   
H1  H2  EPW O   H1  H2  EPW O   H1  H2  EPW O   H1  H2  EPW O   H1  H2  EPW O   
H1  H2  EPW O   H1  H2  EPW O   H1  H2  EPW O   H1  H2  EPW O   H1  H2  EPW O   
H1  H2  EPW O   H1  H2  EPW O   H1  H2  EPW O   H1  H2  EPW O   H1  H2  EPW O   
H1  H2  EPW O   H1  H2  EPW O   H1  H2  EPW O   H1  H2  EPW O   H1  H2  EPW O   
H1  H2  EPW O   H1  H2  EPW O   H1  H2  EPW O   H1  H2  EPW O   H1  H2  EPW O   
H1  H2  EPW O   H1  H2  EPW O   H1  H2  EPW O   H1  H2  EPW O   H1  H2  EPW O   
H1  H2  EPW O   H1  H2  EPW O   H1  H2  EPW O   H1  H2  EPW O   H1  H2  EPW O   
H1  H2  EPW O   H1  H2  EPW O   H1  H2  EPW O   H1  H2  EPW O   H1  H2  EPW O   
H1  H2  EPW O   H1  H2  EPW O   H1  H2  EPW O   H1  H2  EPW O   H1  H2  EPW O   
H1  H2  EPW O   H1  H2  EPW O   H1  H2  EPW O   H1  H2  EPW O   H1  H2  EPW O   
H1  H2  EPW O   H1  H2  EPW O   H1  H2  EPW O   H1  H2  EPW O   H1  H2  EPW O   
H1  H2  EPW O   H1  H2  EPW O   H1  H2  EPW O   H1  H2  EPW O   H1  H2  EPW O   
H1  H2  EPW O   H1  H2  EPW O   H1  H2  EPW O   H1  H2  EPW O   H1  H2  EPW O   
H1  H2  EPW O   H1  H2  EPW O   H1  H2  EPW O   H1  H2  EPW O   H1  H2  EPW O   
H1  H2  EPW O   H1  H2  EPW O   H1  H2  EPW O   H1  H2  EPW O   H1  H2  EPW O   
H1  H2  EPW O   H1  H2  EPW O   H1  H2  EPW O   H1  H2  EPW O   H1  H2  EPW O   
H1  H2  EPW O   H1  H2  EPW O   H1  H2  EPW O   H1  H2  EPW O   H1  H2  EPW O   
H1  H2  EPW O   H1  H2  EPW O   H1  H2  EPW O   H1  H2  EPW O   H1  H2  EPW O   
H1  H2  EPW O   H1  H2  EPW O   H1  H2  EPW O   H1  H2  EPW O   H1  H2  EPW O   
H1  H2  EPW O   H1  H2  EPW O   H1  H2  EPW O   H1  H2  EPW O   H1  H2  EPW O   
H1  H2  EPW O   H1  H2  EPW O   H1  H2  EPW O   H1  H2  EPW O   H1  H2  EPW O   
H1  H2  EPW O   H1  H2  EPW O   H1  H2  EPW O   H1  H2  EPW O   H1  H2  EPW O   
H1  H2  EPW O   H1  H2  EPW O   H1  H2  EPW O   H1  H2  EPW O   H1  H2  EPW O   
H1  H2  EPW O   H1  H2  EPW O   H1  H2  EPW O   H1  H2  EPW O   H1  H2  EPW O   
H1  H2  EPW O   H1  H2  EPW O   H1  H2  EPW O   H1  H2  EPW O   H1  H2  EPW O   
H1  H2  EPW O   H1  H2  EPW O   H1  H2  EPW O   H1  H2  EPW O   H1  H2  EPW O   
H1  H2  EPW O   H1  H2  EPW O   H1  H2  EPW O   H1  H2  EPW O   H1  H2  EPW O   
H1  H2  EPW O   H1  H2  EPW O   H1  H2  EPW O   H1  H2  EPW O   H1  H2  EPW O   
H1  H2  EPW O   H1  H2  EPW O   H1  H2  EPW O   H1  H2  EPW O   H1  H2  EPW O   
H1  H2  EPW O   H1  H2  EPW O   H1  H2  EPW O   H1  H2  EPW O   H1  H2  EPW O   
H1  H2  EPW O   H1  H2  EPW O   H1  H2  EPW O   H1  H2  EPW O   H1  H2  EPW O   
H1  H2  EPW O   H1  H2  EPW O   H1  H2  EPW O   H1  H2  EPW O   H1  H2  EPW O   
H1  H2  EPW O   H1  H2  EPW O   H1  H2  EPW O   H1  H2  EPW O   H1  H2  EPW O   
H1  H2  EPW O   H1  H2  EPW O   H1  H2  EPW O   H1  H2  EPW O   H1  H2  EPW O   
H1  H2  EPW O   H1  H2  EPW O   H1  H2  EPW O   H1  H2  EPW O   H1  H2  EPW O   
H1  H2  EPW O   H1  H2  EPW O   H1  H2  EPW O   H1  H2  EPW O   H1  H2  EPW O   
H1  H2  EPW O   H1  H2  EPW O   H1  H2  EPW O   H1  H2  EPW O   H1  H2  EPW O   
H1  H2  EPW O   H1  H2  EPW O   H1  H2  EPW O   H1  H2  EPW O   H1  H2  EPW O   
H1  H2  EPW O   H1  H2  EPW O   H1  H2  EPW O   H1  H2  EPW O   H1  H2  EPW O   
H1  H2  EPW O   H1  H2  EPW O   H1  H2  EPW O   H1  H2  EPW O   H1  H2  EPW O   
H1  H2  EPW O   H1  H2  EPW O   H1  H2  EPW O   H1  H2  EPW O   H1  H2  EPW O   
H1  H2  EPW O   H1  H2  EPW O   H1  H2  EPW O   H1  H2  EPW O   H1  H2  EPW O   
H1  H2  EPW O   H1  H2  EPW O   H1  H2  EPW O   H1  H2  EPW O   H1  H2  EPW O   
H1  H2  EPW O   H1  H2  EPW O   H1  H2  EPW O   H1  H2  EPW O   H1  H2  EPW O   
H1  H2  EPW O   H1  H2  EPW O   H1  H2  EPW O   H1  H2  EPW O   H1  H2  EPW O   
H1  H2  EPW O   H1  H2  EPW O   H1  H2  EPW O   H1  H2  EPW O   H1  H2  EPW O   
H1  H2  EPW O   H1  H2  EPW O   H1  H2  EPW O   H1  H2  EPW O   H1  H2  EPW O   
H1  H2  EPW O   H1  H2  EPW O   H1  H2  EPW O   H1  H2  EPW O   H1  H2  EPW O   
H1  H2  EPW O   H1  H2  EPW O   H1  H2  EPW O   H1  H2  EPW O   H1  H2  EPW O   
H1  H2  EPW O   H1  H2  EPW O   H1  H2  EPW O   H1  H2  EPW O   H1  H2  EPW O   
H1  H2  EPW O   H1  H2  EPW O   H1  H2  EPW O   H1  H2  EPW O   H1  H2  EPW O   
H1  H2  EPW O   H1  H2  EPW O   H1  H2  EPW O   H1  H2  EPW O   H1  H2  EPW O   
H1  H2  EPW O   H1  H2  EPW O   H1  H2  EPW O   H1  H2  EPW O   H1  H2  EPW O   
H1  H2  EPW O   H1  H2  EPW O   H1  H2  EPW O   H1  H2  EPW O   H1  H2  EPW O   
H1  H2  EPW O   H1  H2  EPW O   H1  H2  EPW O   H1  H2  EPW O   H1  H2  EPW O   
H1  H2  EPW O   H1  H2  EPW O   H1  H2  EPW O   H1  H2  EPW O   H1  H2  EPW O   
H1  H2  EPW O   H1  H2  EPW O   H1  H2  EPW O   H1  H2  EPW O   H1  H2  EPW O   
H1  H2  EPW O   H1  H2  EPW O   H1  H2  EPW O   H1  H2  EPW O   H1  H2  EPW O   
H1  H2  EPW O   H1  H2  EPW O   H1  H2  EPW O   H1  H2  EPW O   H1  H2  EPW O   
H1  H2  EPW O   H1  H2  EPW O   H1  H2  EPW O   H1  H2  EPW O   H1  H2  EPW O   
H1  H2  EPW O   H1  H2  EPW O   H1  H2  EPW O   H1  H2  EPW O   H1  H2  EPW O   
H1  H2  EPW O   H1  H2  EPW O   H1  H2  EPW O   H1  H2  EPW O   H1  H2  EPW O   
H1  H2  EPW O   H1  H2  EPW O   H1  H2  EPW O   H1  H2  EPW O   H1  H2  EPW O   
H1  H2  EPW O   H1  H2  EPW O   H1  H2  EPW O   H1  H2  EPW O   H1  H2  EPW O   
H1  H2  EPW O   H1  H2  EPW O   H1  H2  EPW O   H1  H2  EPW O   H1  H2  EPW O   
H1  H2  EPW O   H1  H2  EPW O   H1  H2  EPW O   H1  H2  EPW O   H1  H2  EPW O   
H1  H2  EPW O   H1  H2  EPW O   H1  H2  EPW O   H1  H2  EPW O   H1  H2  EPW O   
H1  H2  EPW O   H1  H2  EPW O   H1  H2  EPW O   H1  H2  EPW O   H1  H2  EPW O   
H1  H2  EPW O   H1  H2  EPW O   H1  H2  EPW O   H1  H2  EPW O   H1  H2  EPW O   
H1  H2  EPW O   H1  H2  EPW O   H1  H2  EPW O   H1  H2  EPW O   H1  H2  EPW O   
H1  H2  EPW O   H1  H2  EPW O   H1  H2  EPW O   H1  H2  EPW O   H1  H2  EPW O   
H1  H2  EPW O   H1  H2  EPW O   H1  H2  EPW O   H1  H2  EPW O   H1  H2  EPW O   
H1  H2  EPW O   H1  H2  EPW O   H1  H2  EPW O   H1  H2  EPW O   H1  H2  EPW O   
H1  H2  EPW O   H1  H2  EPW O   H1  H2  EPW O   H1  H2  EPW O   H1  H2  EPW O   
H1  H2  EPW O   H1  H2  EPW O   H1  H2  EPW O   H1  H2  EPW O   H1  H2  EPW O   
H1  H2  EPW O   H1  H2  EPW O   H1  H2  EPW O   H1  H2  EPW O   H1  H2  EPW O   
H1  H2  EPW O   H1  H2  EPW O   H1  H2  EPW O   H1  H2  EPW O   H1  H2  EPW O   
H1  H2  EPW O   H1  H2  EPW O   H1  H2  EPW O   H1  H2  EPW O   H1  H2  EPW O   
H1  H2  EPW O   H1  H2  EPW O   H1  H2  EPW O   H1  H2  EPW O   H1  H2  EPW O   
H1  H2  EPW O   H1  H2  EPW O   H1  H2  EPW O   H1  H2  EPW O   H1  H2  EPW O   
H1  H2  EPW O   H1  H2  EPW O   H1  H2  EPW O   H1  H2  EPW O   H1  H2  EPW O   
H1  H2  EPW O   H1  H2  EPW O   H1  H2  EPW O   H1  H2  EPW O   H1  H2  EPW O   
H1  H2  EPW O   H1  H2  EPW O   H1  H2  EPW O   H1  H2  EPW O   H1  H2  EPW O   
H1  H2  EPW O   H1  H2  EPW O   H1  H2  EPW O   H1  H2  EPW O   H1  H2  EPW O   
H1  H2  EPW O   H1  H2  EPW O   H1  H2  EPW O   H1  H2  EPW O   H1  H2  EPW O   
H1  H2  EPW O   H1  H2  EPW O   H1  H2  EPW O   H1  H2  EPW O   H1  H2  EPW O   
H1  H2  EPW O   H1  H2  EPW O   H1  H2  EPW O   H1  H2  EPW O   H1  H2  EPW O   
H1  H2  EPW O   H1  H2  EPW O   H1  H2  EPW O   H1  H2  EPW O   H1  H2  EPW O   
H1  H2  EPW O   H1  H2  EPW O   H1  H2  EPW O   H1  H2  EPW O   H1  H2  EPW O   
H1  H2  EPW O   H1  H2  EPW O   H1  H2  EPW O   H1  H2  EPW O   H1  H2  EPW O   
H1  H2  EPW O   H1  H2  EPW O   H1  H2  EPW O   H1  H2  EPW O   H1  H2  EPW O   
H1  H2  EPW O   H1  H2  EPW O   H1  H2  EPW O   H1  H2  EPW O   H1  H2  EPW O   
H1  H2  EPW O   H1  H2  EPW O   H1  H2  EPW O   H1  H2  EPW O   H1  H2  EPW O   
H1  H2  EPW O   H1  H2  EPW O   H1  H2  EPW O   H1  H2  EPW O   H1  H2  EPW O   
H1  H2  EPW O   H1  H2  EPW O   H1  H2  EPW O   H1  H2  EPW O   H1  H2  EPW O   
H1  H2  EPW O   H1  H2  EPW O   H1  H2  EPW O   H1  H2  EPW O   H1  H2  EPW O   
H1  H2  EPW O   H1  H2  EPW O   H1  H2  EPW O   H1  H2  EPW O   H1  H2  EPW O   
H1  H2  EPW O   H1  H2  EPW O   H1  H2  EPW O   H1  H2  EPW O   H1  H2  EPW O   
H1  H2  EPW O   H1  H2  EPW O   H1  H2  EPW O   H1  H2  EPW O   H1  H2  EPW O   
H1  H2  EPW O   H1  H2  EPW O   H1  H2  EPW O   H1  H2  EPW O   H1  H2  EPW O   
H1  H2  EPW O   H1  H2  EPW O   H1  H2  EPW O   H1  H2  EPW O   H1  H2  EPW O   
H1  H2  EPW O   H1  H2  EPW O   H1  H2  EPW O   H1  H2  EPW O   H1  H2  EPW O   
H1  H2  EPW O   H1  H2  EPW O   H1  H2  EPW O   H1  H2  EPW O   H1  H2  EPW O   
H1  H2  EPW O   H1  H2  EPW O   H1  H2  EPW O   H1  H2  EPW O   H1  H2  EPW O   
H1  H2  EPW O   H1  H2  EPW O   H1  H2  EPW O   H1  H2  EPW O   H1  H2  EPW O   
H1  H2  EPW O   H1  H2  EPW O   H1  H2  EPW O   H1  H2  EPW O   H1  H2  EPW O   
H1  H2  EPW O   H1  H2  EPW O   H1  H2  EPW O   H1  H2  EPW O   H1  H2  EPW O   
H1  H2  EPW O   H1  H2  EPW O   H1  H2  EPW O   H1  H2  EPW O   H1  H2  EPW O   
H1  H2  EPW O   H1  H2  EPW O   H1  H2  EPW O   H1  H2  EPW O   H1  H2  EPW O   
H1  H2  EPW O   H1  H2  EPW O   H1  H2  EPW O   H1  H2  EPW O   H1  H2  EPW O   
H1  H2  EPW O   H1  H2  EPW O   H1  H2  EPW O   H1  H2  EPW O   H1  H2  EPW O   
H1  H2  EPW O   H1  H2  EPW O   H1  H2  EPW O   H1  H2  EPW O   H1  H2  EPW O   
H1  H2  EPW O   H1  H2  EPW O   H1  H2  EPW O   H1  H2  EPW O   H1  H2  EPW O   
H1  H2  EPW O   H1  H2  EPW O   H1  H2  EPW O   H1  H2  EPW O   H1  H2  EPW O   
H1  H2  EPW O   H1  H2  EPW O   H1  H2  EPW O   H1  H2  EPW O   H1  H2  EPW O   
H1  H2  EPW O   H1  H2  EPW O   H1  H2  EPW O   H1  H2  EPW O   H1  H2  EPW O   
H1  H2  EPW O   H1  H2  EPW O   H1  H2  EPW O   H1  H2  EPW O   H1  H2  EPW O   
H1  H2  EPW O   H1  H2  EPW O   H1  H2  EPW O   H1  H2  EPW O   H1  H2  EPW O   
H1  H2  EPW O   H1  H2  EPW O   H1  H2  EPW O   H1  H2  EPW O   H1  H2  EPW O   
H1  H2  EPW O   H1  H2  EPW O   H1  H2  EPW O   H1  H2  EPW O   H1  H2  EPW O   
H1  H2  EPW O   H1  H2  EPW O   H1  H2  EPW O   H1  H2  EPW O   H1  H2  EPW O   
H1  H2  EPW O   H1  H2  EPW O   H1  H2  EPW O   H1  H2  EPW O   H1  H2  EPW O   
H1  H2  EPW O   H1  H2  EPW O   H1  H2  EPW O   H1  H2  EPW O   H1  H2  EPW O   
H1  H2  EPW O   H1  H2  EPW O   H1  H2  EPW O   H1  H2  EPW O   H1  H2  EPW O   
H1  H2  EPW O   H1  H2  EPW O   H1  H2  EPW O   H1  H2  EPW O   H1  H2  EPW O   
H1  H2  EPW O   H1  H2  EPW O   H1  H2  EPW O   H1  H2  EPW O   H1  H2  EPW O   
H1  H2  EPW O   H1  H2  EPW O   H1  H2  EPW O   H1  H2  EPW O   H1  H2  EPW O   
H1  H2  EPW O   H1  H2  EPW O   H1  H2  EPW O   H1  H2  EPW O   H1  H2  EPW O   
H1  H2  EPW O   H1  H2  EPW O   H1  H2  EPW O   H1  H2  EPW O   H1  H2  EPW O   
H1  H2  EPW O   H1  H2  EPW O   H1  H2  EPW O   H1  H2  EPW O   H1  H2  EPW O   
H1  H2  EPW O   H1  H2  EPW O   H1  H2  EPW O   H1  H2  EPW O   H1  H2  EPW O   
H1  H2  EPW O   H1  H2  EPW O   H1  H2  EPW O   H1  H2  EPW O   H1  H2  EPW O   
H1  H2  EPW O   H1  H2  EPW O   H1  H2  EPW O   H1  H2  EPW O   H1  H2  EPW O   
H1  H2  EPW O   H1  H2  EPW O   H1  H2  EPW O   H1  H2  EPW O   H1  H2  EPW O   
H1  H2  EPW O   H1  H2  EPW O   H1  H2  EPW O   H1  H2  EPW O   H1  H2  EPW O   
H1  H2  EPW O   H1  H2  EPW O   H1  H2  EPW O   H1  H2  EPW O   H1  H2  EPW O   
H1  H2  EPW O   H1  H2  EPW O   H1  H2  EPW O   H1  H2  EPW O   H1  H2  EPW O   
H1  H2  EPW O   H1  H2  EPW O   H1  H2  EPW O   H1  H2  EPW O   H1  H2  EPW O   
H1  H2  EPW O   H1  H2  EPW O   H1  H2  EPW O   H1  H2  EPW O   H1  H2  EPW O   
H1  H2  EPW O   H1  H2  EPW O   H1  H2  EPW O   H1  H2  EPW O   H1  H2  EPW O   
H1  H2  EPW O   H1  H2  EPW O   H1  H2  EPW O   H1  H2  EPW O   H1  H2  EPW O   
H1  H2  EPW O   H1  H2  EPW O   H1  H2  EPW O   H1  H2  EPW O   H1  H2  EPW O   
H1  H2  EPW O   H1  H2  EPW O   H1  H2  EPW O   H1  H2  EPW O   H1  H2  EPW O   
H1  H2  EPW O   H1  H2  EPW O   H1  H2  EPW O   H1  H2  EPW O   H1  H2  EPW O   
H1  H2  EPW O   H1  H2  EPW O   H1  H2  EPW O   H1  H2  EPW O   H1  H2  EPW O   
H1  H2  EPW O   H1  H2  EPW O   H1  H2  EPW O   H1  H2  EPW O   H1  H2  EPW O   
H1  H2  EPW O   H1  H2  EPW O   H1  H2  EPW O   H1  H2  EPW O   H1  H2  EPW O   
H1  H2  EPW O   H1  H2  EPW O   H1  H2  EPW O   H1  H2  EPW O   H1  H2  EPW O   
H1  H2  EPW O   H1  H2  EPW O   H1  H2  EPW O   H1  H2  EPW O   H1  H2  EPW O   
H1  H2  EPW O   H1  H2  EPW O   H1  H2  EPW O   H1  H2  EPW O   H1  H2  EPW O   
H1  H2  EPW O   H1  H2  EPW O   H1  H2  EPW O   H1  H2  EPW O   H1  H2  EPW O   
H1  H2  EPW O   H1  H2  EPW O   H1  H2  EPW O   H1  H2  EPW O   H1  H2  EPW O   
H1  H2  EPW O   H1  H2  EPW O   H1  H2  EPW O   H1  H2  EPW O   H1  H2  EPW O   
H1  H2  EPW O   H1  H2  EPW O   H1  H2  EPW O   H1  H2  EPW O   H1  H2  EPW O   
H1  H2  EPW O   H1  H2  EPW O   H1  H2  EPW O   H1  H2  EPW O   H1  H2  EPW O   
H1  H2  EPW O   H1  H2  EPW O   H1  H2  EPW O   H1  H2  EPW O   H1  H2  EPW O   
H1  H2  EPW O   H1  H2  EPW O   H1  H2  EPW O   H1  H2  EPW O   H1  H2  EPW O   
H1  H2  EPW O   H1  H2  EPW O   H1  H2  EPW O   H1  H2  EPW O   H1  H2  EPW O   
H1  H2  EPW O   H1  H2  EPW O   H1  H2  EPW O   H1  H2  EPW O   H1  H2  EPW O   
H1  H2  EPW O   H1  H2  EPW O   H1  H2  EPW O   H1  H2  EPW O   H1  H2  EPW O   
H1  H2  EPW O   H1  H2  EPW O   H1  H2  EPW O   H1  H2  EPW O   H1  H2  EPW O   
H1  H2  EPW O   H1  H2  EPW O   H1  H2  EPW O   H1  H2  EPW O   H1  H2  EPW O   
H1  H2  EPW O   H1  H2  EPW O   H1  H2  EPW O   H1  H2  EPW O   H1  H2  EPW O   
H1  H2  EPW O   H1  H2  EPW O   H1  H2  EPW O   H1  H2  EPW O   H1  H2  EPW O   
H1  H2  EPW O   H1  H2  EPW O   H1  H2  EPW O   H1  H2  EPW O   H1  H2  EPW O   
H1  H2  EPW O   H1  H2  EPW O   H1  H2  EPW O   H1  H2  EPW O   H1  H2  EPW O   
H1  H2  EPW O   H1  H2  EPW O   H1  H2  EPW O   H1  H2  EPW O   H1  H2  EPW O   
H1  H2  EPW O   H1  H2  EPW O   H1  H2  EPW O   H1  H2  EPW O   H1  H2  EPW O   
H1  H2  EPW O   H1  H2  EPW O   H1  H2  EPW O   H1  H2  EPW O   H1  H2  EPW O   
H1  H2  EPW O   H1  H2  EPW O   H1  H2  EPW O   H1  H2  EPW O   H1  H2  EPW O   
H1  H2  EPW O   H1  H2  EPW O   H1  H2  EPW O   H1  H2  EPW O   H1  H2  EPW O   
H1  H2  EPW O   H1  H2  EPW O   H1  H2  EPW O   H1  H2  EPW O   H1  H2  EPW O   
H1  H2  EPW O   H1  H2  EPW O   H1  H2  EPW O   H1  H2  EPW O   H1  H2  EPW O   
H1  H2  EPW O   H1  H2  EPW O   H1  H2  EPW O   H1  H2  EPW O   H1  H2  EPW O   
H1  H2  EPW O   H1  H2  EPW O   H1  H2  EPW O   H1  H2  EPW O   H1  H2  EPW O   
H1  H2  EPW O   H1  H2  EPW O   H1  H2  EPW O   H1  H2  EPW O   H1  H2  EPW O   
H1  H2  EPW O   H1  H2  EPW O   H1  H2  EPW O   H1  H2  EPW O   H1  H2  EPW O   
H1  H2  EPW O   H1  H2  EPW O   H1  H2  EPW O   H1  H2  EPW O   H1  H2  EPW O   
H1  H2  EPW O   H1  H2  EPW O   H1  H2  EPW O   H1  H2  EPW O   H1  H2  EPW O   
H1  H2  EPW O   H1  H2  EPW O   H1  H2  EPW O   H1  H2  EPW O   H1  H2  EPW O   
H1  H2  EPW O   H1  H2  EPW O   H1  H2  EPW O   H1  H2  EPW O   H1  H2  EPW O   
H1  H2  EPW O   H1  H2  EPW O   H1  H2  EPW O   H1  H2  EPW O   H1  H2  EPW O   
H1  H2  EPW O   H1  H2  EPW O   H1  H2  EPW O   H1  H2  EPW O   H1  H2  EPW O   
H1  H2  EPW O   H1  H2  EPW O   H1  H2  EPW O   H1  H2  EPW O   H1  H2  EPW O   
H1  H2  EPW O   H1  H2  EPW O   H1  H2  EPW O   H1  H2  EPW O   H1  H2  EPW O   
H1  H2  EPW O   H1  H2  EPW O   H1  H2  EPW O   H1  H2  EPW O   H1  H2  EPW O   
H1  H2  EPW O   H1  H2  EPW O   H1  H2  EPW O   H1  H2  EPW O   H1  H2  EPW O   
H1  H2  EPW O   H1  H2  EPW O   H1  H2  EPW O   H1  H2  EPW O   H1  H2  EPW O   
H1  H2  EPW O   H1  H2  EPW O   H1  H2  EPW O   H1  H2  EPW O   H1  H2  EPW O   
H1  H2  EPW O   H1  H2  EPW O   H1  H2  EPW O   H1  H2  EPW O   H1  H2  EPW O   
H1  H2  EPW O   H1  H2  EPW O   H1  H2  EPW O   H1  H2  EPW O   H1  H2  EPW O   
H1  H2  EPW O   H1  H2  EPW O   H1  H2  EPW O   H1  H2  EPW O   H1  H2  EPW O   
H1  H2  EPW O   H1  H2  EPW O   H1  H2  EPW O   H1  H2  EPW O   H1  H2  EPW O   
H1  H2  EPW O   H1  H2  EPW O   H1  H2  EPW O   H1  H2  EPW O   H1  H2  EPW O   
H1  H2  EPW O   H1  H2  EPW O   H1  H2  EPW O   H1  H2  EPW O   H1  H2  EPW O   
H1  H2  EPW O   H1  H2  EPW O   H1  H2  EPW O   H1  H2  EPW O   H1  H2  EPW O   
H1  H2  EPW O   H1  H2  EPW O   H1  H2  EPW O   H1  H2  EPW O   H1  H2  EPW O   
H1  H2  EPW O   H1  H2  EPW O   H1  H2  EPW O   H1  H2  EPW O   H1  H2  EPW O   
H1  H2  EPW O   H1  H2  EPW O   H1  H2  EPW O   H1  H2  EPW O   H1  H2  EPW O   
H1  H2  EPW O   H1  H2  EPW O   H1  H2  EPW O   H1  H2  EPW O   H1  H2  EPW O   
H1  H2  EPW O   H1  H2  EPW O   H1  H2  EPW O   H1  H2  EPW O   H1  H2  EPW O   
H1  H2  EPW O   H1  H2  EPW O   H1  H2  EPW O   H1  H2  EPW O   H1  H2  EPW O   
H1  H2  EPW O   H1  H2  EPW O   H1  H2  EPW O   H1  H2  EPW O   H1  H2  EPW O   
H1  H2  EPW O   H1  H2  EPW O   H1  H2  EPW O   H1  H2  EPW O   H1  H2  EPW O   
H1  H2  EPW O   H1  H2  EPW O   H1  H2  EPW O   H1  H2  EPW O   H1  H2  EPW O   
H1  H2  EPW O   H1  H2  EPW O   H1  H2  EPW O   H1  H2  EPW O   H1  H2  EPW O   
H1  H2  EPW O   H1  H2  EPW O   H1  H2  EPW O   H1  H2  EPW O   H1  H2  EPW O   
H1  H2  EPW O   H1  H2  EPW O   H1  H2  EPW O   H1  H2  EPW O   H1  H2  EPW O   
H1  H2  EPW O   H1  H2  EPW O   H1  H2  EPW O   H1  H2  EPW O   H1  H2  EPW O   
H1  H2  EPW O   H1  H2  EPW O   H1  H2  EPW O   H1  H2  EPW O   H1  H2  EPW O   
H1  H2  EPW O   H1  H2  EPW O   H1  H2  EPW O   H1  H2  EPW O   H1  H2  EPW O   
H1  H2  EPW O   H1  H2  EPW O   H1  H2  EPW O   H1  H2  EPW O   H1  H2  EPW O   
H1  H2  EPW O   H1  H2  EPW O   H1  H2  EPW O   H1  H2  EPW O   H1  H2  EPW O   
H1  H2  EPW O   H1  H2  EPW O   H1  H2  EPW O   H1  H2  EPW O   H1  H2  EPW O   
H1  H2  EPW O   H1  H2  EPW O   H1  H2  EPW O   H1  H2  EPW O   H1  H2  EPW O   
H1  H2  EPW O   H1  H2  EPW O   H1  H2  EPW O   H1  H2  EPW O   H1  H2  EPW O   
H1  H2  EPW O   H1  H2  EPW O   H1  H2  EPW O   H1  H2  EPW O   H1  H2  EPW O   
H1  H2  EPW O   H1  H2  EPW O   H1  H2  EPW O   H1  H2  EPW O   H1  H2  EPW O   
H1  H2  EPW O   H1  H2  EPW O   H1  H2  EPW O   H1  H2  EPW O   H1  H2  EPW O   
H1  H2  EPW O   H1  H2  EPW O   H1  H2  EPW O   H1  H2  EPW O   H1  H2  EPW O   
H1  H2  EPW O   H1  H2  EPW O   H1  H2  EPW O   H1  H2  EPW O   H1  H2  EPW O   
H1  H2  EPW O   H1  H2  EPW O   H1  H2  EPW O   H1  H2  EPW O   H1  H2  EPW O   
H1  H2  EPW O   H1  H2  EPW O   H1  H2  EPW O   H1  H2  EPW O   H1  H2  EPW O   
H1  H2  EPW O   H1  H2  EPW O   H1  H2  EPW O   H1  H2  EPW O   H1  H2  EPW O   
H1  H2  EPW O   H1  H2  EPW O   H1  H2  EPW O   H1  H2  EPW O   H1  H2  EPW O   
H1  H2  EPW O   H1  H2  EPW O   H1  H2  EPW O   H1  H2  EPW O   H1  H2  EPW O   
H1  H2  EPW O   H1  H2  EPW O   H1  H2  EPW O   H1  H2  EPW O   H1  H2  EPW O   
H1  H2  EPW O   H1  H2  EPW O   H1  H2  EPW O   H1  H2  EPW O   H1  H2  EPW O   
H1  H2  EPW O   H1  H2  EPW O   H1  H2  EPW O   H1  H2  EPW O   H1  H2  EPW O   
H1  H2  EPW O   H1  H2  EPW O   H1  H2  EPW O   H1  H2  EPW O   H1  H2  EPW O   
H1  H2  EPW O   H1  H2  EPW O   H1  H2  EPW O   H1  H2  EPW O   H1  H2  EPW O   
H1  H2  EPW O   H1  H2  EPW O   H1  H2  EPW O   H1  H2  EPW O   H1  H2  EPW O   
H1  H2  EPW O   H1  H2  EPW O   H1  H2  EPW O   H1  H2  EPW O   H1  H2  EPW O   
H1  H2  EPW O   H1  H2  EPW O   H1  H2  EPW O   H1  H2  EPW O   H1  H2  EPW O   
H1  H2  EPW O   H1  H2  EPW O   H1  H2  EPW O   H1  H2  EPW O   H1  H2  EPW O   
H1  H2  EPW O   H1  H2  EPW O   H1  H2  EPW O   H1  H2  EPW O   H1  H2  EPW O   
H1  H2  EPW O   H1  H2  EPW O   H1  H2  EPW O   H1  H2  EPW O   H1  H2  EPW O   
H1  H2  EPW O   H1  H2  EPW O   H1  H2  EPW O   H1  H2  EPW O   H1  H2  EPW O   
H1  H2  EPW O   H1  H2  EPW O   H1  H2  EPW O   H1  H2  EPW O   H1  H2  EPW O   
H1  H2  EPW O   H1  H2  EPW O   H1  H2  EPW O   H1  H2  EPW O   H1  H2  EPW O   
H1  H2  EPW O   H1  H2  EPW O   H1  H2  EPW O   H1  H2  EPW O   H1  H2  EPW O   
H1  H2  EPW O   H1  H2  EPW O   H1  H2  EPW O   H1  H2  EPW O   H1  H2  EPW O   
H1  H2  EPW O   H1  H2  EPW O   H1  H2  EPW O   H1  H2  EPW O   H1  H2  EPW O   
H1  H2  EPW O   H1  H2  EPW O   H1  H2  EPW O   H1  H2  EPW O   H1  H2  EPW O   
H1  H2  EPW O   H1  H2  EPW O   H1  H2  EPW O   H1  H2  EPW O   H1  H2  EPW O   
H1  H2  EPW O   H1  H2  EPW O   H1  H2  EPW O   H1  H2  EPW O   H1  H2  EPW O   
H1  H2  EPW O   H1  H2  EPW O   H1  H2  EPW O   H1  H2  EPW O   H1  H2  EPW O   
H1  H2  EPW O   H1  H2  EPW O   H1  H2  EPW O   H1  H2  EPW O   H1  H2  EPW O   
H1  H2  EPW O   H1  H2  EPW O   H1  H2  EPW O   H1  H2  EPW O   H1  H2  EPW O   
H1  H2  EPW O   H1  H2  EPW O   H1  H2  EPW O   H1  H2  EPW O   H1  H2  EPW O   
H1  H2  EPW O   H1  H2  EPW O   H1  H2  EPW O   H1  H2  EPW O   H1  H2  EPW O   
H1  H2  EPW O   H1  H2  EPW O   H1  H2  EPW O   H1  H2  EPW O   H1  H2  EPW O   
H1  H2  EPW O   H1  H2  EPW O   H1  H2  EPW O   H1  H2  EPW O   H1  H2  EPW O   
H1  H2  EPW O   H1  H2  EPW O   H1  H2  EPW O   H1  H2  EPW O   H1  H2  EPW O   
H1  H2  EPW O   H1  H2  EPW O   H1  H2  EPW O   H1  H2  EPW O   H1  H2  EPW O   
H1  H2  EPW O   H1  H2  EPW O   H1  H2  EPW O   H1  H2  EPW O   H1  H2  EPW O   
H1  H2  EPW O   H1  H2  EPW O   H1  H2  EPW O   H1  H2  EPW O   H1  H2  EPW O   
H1  H2  EPW O   H1  H2  EPW O   H1  H2  EPW O   H1  H2  EPW O   H1  H2  EPW O   
H1  H2  EPW O   H1  H2  EPW O   H1  H2  EPW O   H1  H2  EPW O   H1  H2  EPW O   
H1  H2  EPW O   H1  H2  EPW O   H1  H2  EPW O   H1  H2  EPW O   H1  H2  EPW O   
H1  H2  EPW O   H1  H2  EPW O   H1  H2  EPW O   H1  H2  EPW O   H1  H2  EPW O   
H1  H2  EPW O   H1  H2  EPW O   H1  H2  EPW O   H1  H2  EPW O   H1  H2  EPW O   
H1  H2  EPW O   H1  H2  EPW O   H1  H2  EPW O   H1  H2  EPW O   H1  H2  EPW O   
H1  H2  EPW O   H1  H2  EPW O   H1  H2  EPW O   H1  H2  EPW O   H1  H2  EPW O   
H1  H2  EPW O   H1  H2  EPW O   H1  H2  EPW O   H1  H2  EPW O   H1  H2  EPW O   
H1  H2  EPW O   H1  H2  EPW O   H1  H2  EPW O   H1  H2  EPW O   H1  H2  EPW O   
H1  H2  EPW O   H1  H2  EPW O   H1  H2  EPW O   H1  H2  EPW O   H1  H2  EPW O   
H1  H2  EPW O   H1  H2  EPW O   H1  H2  EPW O   H1  H2  EPW O   H1  H2  EPW O   
H1  H2  EPW O   H1  H2  EPW O   H1  H2  EPW O   H1  H2  EPW O   H1  H2  EPW O   
H1  H2  EPW O   H1  H2  EPW O   H1  H2  EPW O   H1  H2  EPW O   H1  H2  EPW O   
H1  H2  EPW O   H1  H2  EPW O   H1  H2  EPW O   H1  H2  EPW O   H1  H2  EPW O   
H1  H2  EPW O   H1  H2  EPW O   H1  H2  EPW O   H1  H2  EPW O   H1  H2  EPW O   
H1  H2  EPW O   H1  H2  EPW O   H1  H2  EPW O   H1  H2  EPW O   H1  H2  EPW O   
H1  H2  EPW O   H1  H2  EPW O   H1  H2  EPW O   H1  H2  EPW O   H1  H2  EPW O   
H1  H2  EPW O   H1  H2  EPW O   H1  H2  EPW O   H1  H2  EPW O   H1  H2  EPW O   
H1  H2  EPW O   H1  H2  EPW O   H1  H2  EPW O   H1  H2  EPW O   H1  H2  EPW O   
H1  H2  EPW O   H1  H2  EPW O   H1  H2  EPW O   H1  H2  EPW O   H1  H2  EPW O   
H1  H2  EPW O   H1  H2  EPW O   H1  H2  EPW O   H1  H2  EPW O   H1  H2  EPW O   
H1  H2  EPW O   H1  H2  EPW O   H1  H2  EPW O   H1  H2  EPW O   H1  H2  EPW O   
H1  H2  EPW O   H1  H2  EPW O   H1  H2  EPW O   H1  H2  EPW O   H1  H2  EPW O   
H1  H2  EPW O   H1  H2  EPW O   H1  H2  EPW O   H1  H2  EPW O   H1  H2  EPW O   
H1  H2  EPW O   H1  H2  EPW O   H1  H2  EPW O   H1  H2  EPW O   H1  H2  EPW O   
H1  H2  EPW O   H1  H2  EPW O   H1  H2  EPW O   H1  H2  EPW O   H1  H2  EPW O   
H1  H2  EPW O   H1  H2  EPW O   H1  H2  EPW O   H1  H2  EPW O   H1  H2  EPW O   
H1  H2  EPW O   H1  H2  EPW O   H1  H2  EPW O   H1  H2  EPW O   H1  H2  EPW O   
H1  H2  EPW O   H1  H2  EPW O   H1  H2  EPW O   H1  H2  EPW O   H1  H2  EPW O   
H1  H2  EPW O   H1  H2  EPW O   H1  H2  EPW O   H1  H2  EPW O   H1  H2  EPW O   
H1  H2  EPW O   H1  H2  EPW O   H1  H2  EPW O   H1  H2  EPW O   H1  H2  EPW O   
H1  H2  EPW O   H1  H2  EPW O   H1  H2  EPW O   H1  H2  EPW O   H1  H2  EPW O   
H1  H2  EPW O   H1  H2  EPW O   H1  H2  EPW O   H1  H2  EPW O   H1  H2  EPW O   
H1  H2  EPW O   H1  H2  EPW O   H1  H2  EPW O   H1  H2  EPW O   H1  H2  EPW O   
H1  H2  EPW O   H1  H2  EPW O   H1  H2  EPW O   H1  H2  EPW O   H1  H2  EPW O   
H1  H2  EPW O   H1  H2  EPW O   H1  H2  EPW O   H1  H2  EPW O   H1  H2  EPW O   
H1  H2  EPW O   H1  H2  EPW O   H1  H2  EPW O   H1  H2  EPW O   H1  H2  EPW O   
H1  H2  EPW O   H1  H2  EPW O   H1  H2  EPW O   H1  H2  EPW O   H1  H2  EPW O   
H1  H2  EPW O   H1  H2  EPW O   H1  H2  EPW O   H1  H2  EPW O   H1  H2  EPW O   
H1  H2  EPW O   H1  H2  EPW O   H1  H2  EPW O   H1  H2  EPW O   H1  H2  EPW O   
H1  H2  EPW O   H1  H2  EPW O   H1  H2  EPW O   H1  H2  EPW O   H1  H2  EPW O   
H1  H2  EPW O   H1  H2  EPW O   H1  H2  EPW O   H1  H2  EPW O   H1  H2  EPW O   
H1  H2  EPW O   H1  H2  EPW O   H1  H2  EPW O   H1  H2  EPW O   H1  H2  EPW O   
H1  H2  EPW O   H1  H2  EPW O   H1  H2  EPW O   H1  H2  EPW O   H1  H2  EPW O   
H1  H2  EPW O   H1  H2  EPW O   H1  H2  EPW O   H1  H2  EPW O   H1  H2  EPW O   
H1  H2  EPW O   H1  H2  EPW O   H1  H2  EPW O   H1  H2  EPW O   H1  H2  EPW O   
H1  H2  EPW O   H1  H2  EPW O   H1  H2  EPW O   H1  H2  EPW O   H1  H2  EPW O   
H1  H2  EPW O   H1  H2  EPW O   H1  H2  EPW O   H1  H2  EPW O   H1  H2  EPW O   
H1  H2  EPW O   H1  H2  EPW O   H1  H2  EPW O   H1  H2  EPW O   H1  H2  EPW O   
H1  H2  EPW O   H1  H2  EPW O   H1  H2  EPW O   H1  H2  EPW O   H1  H2  EPW O   
H1  H2  EPW O   H1  H2  EPW O   H1  H2  EPW O   H1  H2  EPW O   H1  H2  EPW O   
H1  H2  EPW O   H1  H2  EPW O   H1  H2  EPW O   H1  H2  EPW O   H1  H2  EPW O   
H1  H2  EPW O   H1  H2  EPW O   H1  H2  EPW O   H1  H2  EPW O   H1  H2  EPW O   
H1  H2  EPW O   H1  H2  EPW O   H1  H2  EPW O   H1  H2  EPW O   H1  H2  EPW O   
H1  H2  EPW O   H1  H2  EPW O   H1  H2  EPW O   H1  H2  EPW O   H1  H2  EPW O   
H1  H2  EPW O   H1  H2  EPW O   H1  H2  EPW O   H1  H2  EPW O   H1  H2  EPW O   
H1  H2  EPW O   H1  H2  EPW O   H1  H2  EPW O   H1  H2  EPW 
%FLAG CHARGE                                                                    
%FORMAT(5E16.8)                                                                 
  1.82223000E+01 -1.82223000E+01  1.82223000E+01 -1.82223000E+01  1.82223000E+01
 -1.82223000E+01  1.82223000E+01 -1.82223000E+01  1.82223000E+01 -1.82223000E+01
 -1.09078688E+01  5.52135690E+00 -5.11135515E+00  6.46891650E+00 -1.03302219E+01
  1.32713011E+01 -8.20732392E+00 -1.01170210E+01 -5.75095788E+00  1.36120581E+00
  8.50070295E+00 -1.10700473E+01  1.97894178E+00 -5.68900206E+00  6.20287092E+00
  6.34500486E+00  2.57845545E+00  2.57845545E+00  2.57845545E+00  3.40028118E+00
  6.39784953E+00  0.00000000E+00  9.55249411E+00  9.55249411E+00 -1.91049882E+01
  0.00000000E+00  9.55249411E+00  9.55249411E+00 -1.91049882E+01  0.00000000E+00
  9.55249411E+00  9.55249411E+00 -1.91049882E+01  0.00000000E+00  9.55249411E+00
  9.55249411E+00 -1.91049882E+01  0.00000000E+00  9.55249411E+00  9.55249411E+00
 -1.91049882E+01  0.00000000E+00  9.55249411E+00  9.55249411E+00 -1.91049882E+01
  0.00000000E+00  9.55249411E+00  9.55249411E+00 -1.91049882E+01  0.00000000E+00
  9.55249411E+00  9.55249411E+00 -1.91049882E+01  0.00000000E+00  9.55249411E+00
  9.55249411E+00 -1.91049882E+01  0.00000000E+00  9.55249411E+00  9.55249411E+00
 -1.91049882E+01  0.00000000E+00  9.55249411E+00  9.55249411E+00 -1.91049882E+01
  0.00000000E+00  9.55249411E+00  9.55249411E+00 -1.91049882E+01  0.00000000E+00
  9.55249411E+00  9.55249411E+00 -1.91049882E+01  0.00000000E+00  9.55249411E+00
  9.55249411E+00 -1.91049882E+01  0.00000000E+00  9.55249411E+00  9.55249411E+00
 -1.91049882E+01  0.00000000E+00  9.55249411E+00  9.55249411E+00 -1.91049882E+01
  0.00000000E+00  9.55249411E+00  9.55249411E+00 -1.91049882E+01  0.00000000E+00
  9.55249411E+00  9.55249411E+00 -1.91049882E+01  0.00000000E+00  9.55249411E+00
  9.55249411E+00 -1.91049882E+01  0.00000000E+00  9.55249411E+00  9.55249411E+00
 -1.91049882E+01  0.00000000E+00  9.55249411E+00  9.55249411E+00 -1.91049882E+01
  0.00000000E+00  9.55249411E+00  9.55249411E+00 -1.91049882E+01  0.00000000E+00
  9.55249411E+00  9.55249411E+00 -1.91049882E+01  0.00000000E+00  9.55249411E+00
  9.55249411E+00 -1.91049882E+01  0.00000000E+00  9.55249411E+00  9.55249411E+00
 -1.91049882E+01  0.00000000E+00  9.55249411E+00  9.55249411E+00 -1.91049882E+01
  0.00000000E+00  9.55249411E+00  9.55249411E+00 -1.91049882E+01  0.00000000E+00
  9.55249411E+00  9.55249411E+00 -1.91049882E+01  0.00000000E+00  9.55249411E+00
  9.55249411E+00 -1.91049882E+01  0.00000000E+00  9.55249411E+00  9.55249411E+00
 -1.91049882E+01  0.00000000E+00  9.55249411E+00  9.55249411E+00 -1.91049882E+01
  0.00000000E+00  9.55249411E+00  9.55249411E+00 -1.91049882E+01  0.00000000E+00
  9.55249411E+00  9.55249411E+00 -1.91049882E+01  0.00000000E+00  9.55249411E+00
  9.55249411E+00 -1.91049882E+01  0.00000000E+00  9.55249411E+00  9.55249411E+00
 -1.91049882E+01  0.00000000E+00  9.55249411E+00  9.55249411E+00 -1.91049882E+01
  0.00000000E+00  9.55249411E+00  9.55249411E+00 -1.91049882E+01  0.00000000E+00
  9.55249411E+00  9.55249411E+00 -1.91049882E+01  0.00000000E+00  9.55249411E+00
  9.55249411E+00 -1.91049882E+01  0.00000000E+00  9.55249411E+00  9.55249411E+00
 -1.91049882E+01  0.00000000E+00  9.55249411E+00  9.55249411E+00 -1.91049882E+01
  0.00000000E+00  9.55249411E+00  9.55249411E+00 -1.91049882E+01  0.00000000E+00
  9.55249411E+00  9.55249411E+00 -1.91049882E+01  0.00000000E+00  9.55249411E+00
  9.55249411E+00 -1.91049882E+01  0.00000000E+00  9.55249411E+00  9.55249411E+00
 -1.91049882E+01  0.00000000E+00  9.55249411E+00  9.55249411E+00 -1.91049882E+01
  0.00000000E+00  9.55249411E+00  9.55249411E+00 -1.91049882E+01  0.00000000E+00
  9.55249411E+00  9.55249411E+00 -1.91049882E+01  0.00000000E+00  9.55249411E+00
  9.55249411E+00 -1.91049882E+01  0.00000000E+00  9.55249411E+00  9.55249411E+00
 -1.91049882E+01  0.00000000E+00  9.55249411E+00  9.55249411E+00 -1.91049882E+01
  0.00000000E+00  9.55249411E+00  9.55249411E+00 -1.91049882E+01  0.00000000E+00
  9.55249411E+00  9.55249411E+00 -1.91049882E+01  0.00000000E+00  9.55249411E+00
  9.55249411E+00 -1.91049882E+01  0.00000000E+00  9.55249411E+00  9.55249411E+00
 -1.91049882E+01  0.00000000E+00  9.55249411E+00  9.55249411E+00 -1.91049882E+01
  0.00000000E+00  9.55249411E+00  9.55249411E+00 -1.91049882E+01  0.00000000E+00
  9.55249411E+00  9.55249411E+00 -1.91049882E+01  0.00000000E+00  9.55249411E+00
  9.55249411E+00 -1.91049882E+01  0.00000000E+00  9.55249411E+00  9.55249411E+00
 -1.91049882E+01  0.00000000E+00  9.55249411E+00  9.55249411E+00 -1.91049882E+01
  0.00000000E+00  9.55249411E+00  9.55249411E+00 -1.91049882E+01  0.00000000E+00
  9.55249411E+00  9.55249411E+00 -1.91049882E+01  0.00000000E+00  9.55249411E+00
  9.55249411E+00 -1.91049882E+01  0.00000000E+00  9.55249411E+00  9.55249411E+00
 -1.91049882E+01  0.00000000E+00  9.55249411E+00  9.55249411E+00 -1.91049882E+01
  0.00000000E+00  9.55249411E+00  9.55249411E+00 -1.91049882E+01  0.00000000E+00
  9.55249411E+00  9.55249411E+00 -1.91049882E+01  0.00000000E+00  9.55249411E+00
  9.55249411E+00 -1.91049882E+01  0.00000000E+00  9.55249411E+00  9.55249411E+00
 -1.91049882E+01  0.00000000E+00  9.55249411E+00  9.55249411E+00 -1.91049882E+01
  0.00000000E+00  9.55249411E+00  9.55249411E+00 -1.91049882E+01  0.00000000E+00
  9.55249411E+00  9.55249411E+00 -1.91049882E+01  0.00000000E+00  9.55249411E+00
  9.55249411E+00 -1.91049882E+01  0.00000000E+00  9.55249411E+00  9.55249411E+00
 -1.91049882E+01  0.00000000E+00  9.55249411E+00  9.55249411E+00 -1.91049882E+01
  0.00000000E+00  9.55249411E+00  9.55249411E+00 -1.91049882E+01  0.00000000E+00
  9.55249411E+00  9.55249411E+00 -1.91049882E+01  0.00000000E+00  9.55249411E+00
  9.55249411E+00 -1.91049882E+01  0.00000000E+00  9.55249411E+00  9.55249411E+00
 -1.91049882E+01  0.00000000E+00  9.55249411E+00  9.55249411E+00 -1.91049882E+01
  0.00000000E+00  9.55249411E+00  9.55249411E+00 -1.91049882E+01  0.00000000E+00
  9.55249411E+00  9.55249411E+00 -1.91049882E+01  0.00000000E+00  9.55249411E+00
  9.55249411E+00 -1.91049882E+01  0.00000000E+00  9.55249411E+00  9.55249411E+00
 -1.91049882E+01  0.00000000E+00  9.55249411E+00  9.55249411E+00 -1.91049882E+01
  0.00000000E+00  9.55249411E+00  9.55249411E+00 -1.91049882E+01  0.00000000E+00
  9.55249411E+00  9.55249411E+00 -1.91049882E+01  0.00000000E+00  9.55249411E+00
  9.55249411E+00 -1.91049882E+01  0.00000000E+00  9.55249411E+00  9.55249411E+00
 -1.91049882E+01  0.00000000E+00  9.55249411E+00  9.55249411E+00 -1.91049882E+01
  0.00000000E+00  9.55249411E+00  9.55249411E+00 -1.91049882E+01  0.00000000E+00
  9.55249411E+00  9.55249411E+00 -1.91049882E+01  0.00000000E+00  9.55249411E+00
  9.55249411E+00 -1.91049882E+01  0.00000000E+00  9.55249411E+00  9.55249411E+00
 -1.91049882E+01  0.00000000E+00  9.55249411E+00  9.55249411E+00 -1.91049882E+01
  0.00000000E+00  9.55249411E+00  9.55249411E+00 -1.91049882E+01  0.00000000E+00
  9.55249411E+00  9.55249411E+00 -1.91049882E+01  0.00000000E+00  9.55249411E+00
  9.55249411E+00 -1.91049882E+01  0.00000000E+00  9.55249411E+00  9.55249411E+00
 -1.91049882E+01  0.00000000E+00  9.55249411E+00  9.55249411E+00 -1.91049882E+01
  0.00000000E+00  9.55249411E+00  9.55249411E+00 -1.91049882E+01  0.00000000E+00
  9.55249411E+00  9.55249411E+00 -1.91049882E+01  0.00000000E+00  9.55249411E+00
  9.55249411E+00 -1.91049882E+01  0.00000000E+00  9.55249411E+00  9.55249411E+00
 -1.91049882E+01  0.00000000E+00  9.55249411E+00  9.55249411E+00 -1.91049882E+01
  0.00000000E+00  9.55249411E+00  9.55249411E+00 -1.91049882E+01  0.00000000E+00
  9.55249411E+00  9.55249411E+00 -1.91049882E+01  0.00000000E+00  9.55249411E+00
  9.55249411E+00 -1.91049882E+01  0.00000000E+00  9.55249411E+00  9.55249411E+00
 -1.91049882E+01  0.00000000E+00  9.55249411E+00  9.55249411E+00 -1.91049882E+01
  0.00000000E+00  9.55249411E+00  9.55249411E+00 -1.91049882E+01  0.00000000E+00
  9.55249411E+00  9.55249411E+00 -1.91049882E+01  0.00000000E+00  9.55249411E+00
  9.55249411E+00 -1.91049882E+01  0.00000000E+00  9.55249411E+00  9.55249411E+00
 -1.91049882E+01  0.00000000E+00  9.55249411E+00  9.55249411E+00 -1.91049882E+01
  0.00000000E+00  9.55249411E+00  9.55249411E+00 -1.91049882E+01  0.00000000E+00
  9.55249411E+00  9.55249411E+00 -1.91049882E+01  0.00000000E+00  9.55249411E+00
  9.55249411E+00 -1.91049882E+01  0.00000000E+00  9.55249411E+00  9.55249411E+00
 -1.91049882E+01  0.00000000E+00  9.55249411E+00  9.55249411E+00 -1.91049882E+01
  0.00000000E+00  9.55249411E+00  9.55249411E+00 -1.91049882E+01  0.00000000E+00
  9.55249411E+00  9.55249411E+00 -1.91049882E+01  0.00000000E+00  9.55249411E+00
  9.55249411E+00 -1.91049882E+01  0.00000000E+00  9.55249411E+00  9.55249411E+00
 -1.91049882E+01  0.00000000E+00  9.55249411E+00  9.55249411E+00 -1.91049882E+01
  0.00000000E+00  9.55249411E+00  9.55249411E+00 -1.91049882E+01  0.00000000E+00
  9.55249411E+00  9.55249411E+00 -1.91049882E+01  0.00000000E+00  9.55249411E+00
  9.55249411E+00 -1.91049882E+01  0.00000000E+00  9.55249411E+00  9.55249411E+00
 -1.91049882E+01  0.00000000E+00  9.55249411E+00  9.55249411E+00 -1.91049882E+01
  0.00000000E+00  9.55249411E+00  9.55249411E+00 -1.91049882E+01  0.00000000E+00
  9.55249411E+00  9.55249411E+00 -1.91049882E+01  0.00000000E+00  9.55249411E+00
  9.55249411E+00 -1.91049882E+01  0.00000000E+00  9.55249411E+00  9.55249411E+00
 -1.91049882E+01  0.00000000E+00  9.55249411E+00  9.55249411E+00 -1.91049882E+01
  0.00000000E+00  9.55249411E+00  9.55249411E+00 -1.91049882E+01  0.00000000E+00
  9.55249411E+00  9.55249411E+00 -1.91049882E+01  0.00000000E+00  9.55249411E+00
  9.55249411E+00 -1.91049882E+01  0.00000000E+00  9.55249411E+00  9.55249411E+00
 -1.91049882E+01  0.00000000E+00  9.55249411E+00  9.55249411E+00 -1.91049882E+01
  0.00000000E+00  9.55249411E+00  9.55249411E+00 -1.91049882E+01  0.00000000E+00
  9.55249411E+00  9.55249411E+00 -1.91049882E+01  0.00000000E+00  9.55249411E+00
  9.55249411E+00 -1.91049882E+01  0.00000000E+00  9.55249411E+00  9.55249411E+00
 -1.91049882E+01  0.00000000E+00  9.55249411E+00  9.55249411E+00 -1.91049882E+01
  0.00000000E+00  9.55249411E+00  9.55249411E+00 -1.91049882E+01  0.00000000E+00
  9.55249411E+00  9.55249411E+00 -1.91049882E+01  0.00000000E+00  9.55249411E+00
  9.55249411E+00 -1.91049882E+01  0.00000000E+00  9.55249411E+00  9.55249411E+00
 -1.91049882E+01  0.00000000E+00  9.55249411E+00  9.55249411E+00 -1.91049882E+01
  0.00000000E+00  9.55249411E+00  9.55249411E+00 -1.91049882E+01  0.00000000E+00
  9.55249411E+00  9.55249411E+00 -1.91049882E+01  0.00000000E+00  9.55249411E+00
  9.55249411E+00 -1.91049882E+01  0.00000000E+00  9.55249411E+00  9.55249411E+00
 -1.91049882E+01  0.00000000E+00  9.55249411E+00  9.55249411E+00 -1.91049882E+01
  0.00000000E+00  9.55249411E+00  9.55249411E+00 -1.91049882E+01  0.00000000E+00
  9.55249411E+00  9.55249411E+00 -1.91049882E+01  0.00000000E+00  9.55249411E+00
  9.55249411E+00 -1.91049882E+01  0.00000000E+00  9.55249411E+00  9.55249411E+00
 -1.91049882E+01  0.00000000E+00  9.55249411E+00  9.55249411E+00 -1.91049882E+01
  0.00000000E+00  9.55249411E+00  9.55249411E+00 -1.91049882E+01  0.00000000E+00
  9.55249411E+00  9.55249411E+00 -1.91049882E+01  0.00000000E+00  9.55249411E+00
  9.55249411E+00 -1.91049882E+01  0.00000000E+00  9.55249411E+00  9.55249411E+00
 -1.91049882E+01  0.00000000E+00  9.55249411E+00  9.55249411E+00 -1.91049882E+01
  0.00000000E+00  9.55249411E+00  9.55249411E+00 -1.91049882E+01  0.00000000E+00
  9.55249411E+00  9.55249411E+00 -1.91049882E+01  0.00000000E+00  9.55249411E+00
  9.55249411E+00 -1.91049882E+01  0.00000000E+00  9.55249411E+00  9.55249411E+00
 -1.91049882E+01  0.00000000E+00  9.55249411E+00  9.55249411E+00 -1.91049882E+01
  0.00000000E+00  9.55249411E+00  9.55249411E+00 -1.91049882E+01  0.00000000E+00
  9.55249411E+00  9.55249411E+00 -1.91049882E+01  0.00000000E+00  9.55249411E+00
  9.55249411E+00 -1.91049882E+01  0.00000000E+00  9.55249411E+00  9.55249411E+00
 -1.91049882E+01  0.00000000E+00  9.55249411E+00  9.55249411E+00 -1.91049882E+01
  0.00000000E+00  9.55249411E+00  9.55249411E+00 -1.91049882E+01  0.00000000E+00
  9.55249411E+00  9.55249411E+00 -1.91049882E+01  0.00000000E+00  9.55249411E+00
  9.55249411E+00 -1.91049882E+01  0.00000000E+00  9.55249411E+00  9.55249411E+00
 -1.91049882E+01  0.00000000E+00  9.55249411E+00  9.55249411E+00 -1.91049882E+01
  0.00000000E+00  9.55249411E+00  9.55249411E+00 -1.91049882E+01  0.00000000E+00
  9.55249411E+00  9.55249411E+00 -1.91049882E+01  0.00000000E+00  9.55249411E+00
  9.55249411E+00 -1.91049882E+01  0.00000000E+00  9.55249411E+00  9.55249411E+00
 -1.91049882E+01  0.00000000E+00  9.55249411E+00  9.55249411E+00 -1.91049882E+01
  0.00000000E+00  9.55249411E+00  9.55249411E+00 -1.91049882E+01  0.00000000E+00
  9.55249411E+00  9.55249411E+00 -1.91049882E+01  0.00000000E+00  9.55249411E+00
  9.55249411E+00 -1.91049882E+01  0.00000000E+00  9.55249411E+00  9.55249411E+00
 -1.91049882E+01  0.00000000E+00  9.55249411E+00  9.55249411E+00 -1.91049882E+01
  0.00000000E+00  9.55249411E+00  9.55249411E+00 -1.91049882E+01  0.00000000E+00
  9.55249411E+00  9.55249411E+00 -1.91049882E+01  0.00000000E+00  9.55249411E+00
  9.55249411E+00 -1.91049882E+01  0.00000000E+00  9.55249411E+00  9.55249411E+00
 -1.91049882E+01  0.00000000E+00  9.55249411E+00  9.55249411E+00 -1.91049882E+01
  0.00000000E+00  9.55249411E+00  9.55249411E+00 -1.91049882E+01  0.00000000E+00
  9.55249411E+00  9.55249411E+00 -1.91049882E+01  0.00000000E+00  9.55249411E+00
  9.55249411E+00 -1.91049882E+01  0.00000000E+00  9.55249411E+00  9.55249411E+00
 -1.91049882E+01  0.00000000E+00  9.55249411E+00  9.55249411E+00 -1.91049882E+01
  0.00000000E+00  9.55249411E+00  9.55249411E+00 -1.91049882E+01  0.00000000E+00
  9.55249411E+00  9.55249411E+00 -1.91049882E+01  0.00000000E+00  9.55249411E+00
  9.55249411E+00 -1.91049882E+01  0.00000000E+00  9.55249411E+00  9.55249411E+00
 -1.91049882E+01  0.00000000E+00  9.55249411E+00  9.55249411E+00 -1.91049882E+01
  0.00000000E+00  9.55249411E+00  9.55249411E+00 -1.91049882E+01  0.00000000E+00
  9.55249411E+00  9.55249411E+00 -1.91049882E+01  0.00000000E+00  9.55249411E+00
  9.55249411E+00 -1.91049882E+01  0.00000000E+00  9.55249411E+00  9.55249411E+00
 -1.91049882E+01  0.00000000E+00  9.55249411E+00  9.55249411E+00 -1.91049882E+01
  0.00000000E+00  9.55249411E+00  9.55249411E+00 -1.91049882E+01  0.00000000E+00
  9.55249411E+00  9.55249411E+00 -1.91049882E+01  0.00000000E+00  9.55249411E+00
  9.55249411E+00 -1.91049882E+01  0.00000000E+00  9.55249411E+00  9.55249411E+00
 -1.91049882E+01  0.00000000E+00  9.55249411E+00  9.55249411E+00 -1.91049882E+01
  0.00000000E+00  9.55249411E+00  9.55249411E+00 -1.91049882E+01  0.00000000E+00
  9.55249411E+00  9.55249411E+00 -1.91049882E+01  0.00000000E+00  9.55249411E+00
  9.55249411E+00 -1.91049882E+01  0.00000000E+00  9.55249411E+00  9.55249411E+00
 -1.91049882E+01  0.00000000E+00  9.55249411E+00  9.55249411E+00 -1.91049882E+01
  0.00000000E+00  9.55249411E+00  9.55249411E+00 -1.91049882E+01  0.00000000E+00
  9.55249411E+00  9.55249411E+00 -1.91049882E+01  0.00000000E+00  9.55249411E+00
  9.55249411E+00 -1.91049882E+01  0.00000000E+00  9.55249411E+00  9.55249411E+00
 -1.91049882E+01  0.00000000E+00  9.55249411E+00  9.55249411E+00 -1.91049882E+01
  0.00000000E+00  9.55249411E+00  9.55249411E+00 -1.91049882E+01  0.00000000E+00
  9.55249411E+00  9.55249411E+00 -1.91049882E+01  0.00000000E+00  9.55249411E+00
  9.55249411E+00 -1.91049882E+01  0.00000000E+00  9.55249411E+00  9.55249411E+00
 -1.91049882E+01  0.00000000E+00  9.55249411E+00  9.55249411E+00 -1.91049882E+01
  0.00000000E+00  9.55249411E+00  9.55249411E+00 -1.91049882E+01  0.00000000E+00
  9.55249411E+00  9.55249411E+00 -1.91049882E+01  0.00000000E+00  9.55249411E+00
  9.55249411E+00 -1.91049882E+01  0.00000000E+00  9.55249411E+00  9.55249411E+00
 -1.91049882E+01  0.00000000E+00  9.55249411E+00  9.55249411E+00 -1.91049882E+01
  0.00000000E+00  9.55249411E+00  9.55249411E+00 -1.91049882E+01  0.00000000E+00
  9.55249411E+00  9.55249411E+00 -1.91049882E+01  0.00000000E+00  9.55249411E+00
  9.55249411E+00 -1.91049882E+01  0.00000000E+00  9.55249411E+00  9.55249411E+00
 -1.91049882E+01  0.00000000E+00  9.55249411E+00  9.55249411E+00 -1.91049882E+01
  0.00000000E+00  9.55249411E+00  9.55249411E+00 -1.91049882E+01  0.00000000E+00
  9.55249411E+00  9.55249411E+00 -1.91049882E+01  0.00000000E+00  9.55249411E+00
  9.55249411E+00 -1.91049882E+01  0.00000000E+00  9.55249411E+00  9.55249411E+00
 -1.91049882E+01  0.00000000E+00  9.55249411E+00  9.55249411E+00 -1.91049882E+01
  0.00000000E+00  9.55249411E+00  9.55249411E+00 -1.91049882E+01  0.00000000E+00
  9.55249411E+00  9.55249411E+00 -1.91049882E+01  0.00000000E+00  9.55249411E+00
  9.55249411E+00 -1.91049882E+01  0.00000000E+00  9.55249411E+00  9.55249411E+00
 -1.91049882E+01  0.00000000E+00  9.55249411E+00  9.55249411E+00 -1.91049882E+01
  0.00000000E+00  9.55249411E+00  9.55249411E+00 -1.91049882E+01  0.00000000E+00
  9.55249411E+00  9.55249411E+00 -1.91049882E+01  0.00000000E+00  9.55249411E+00
  9.55249411E+00 -1.91049882E+01  0.00000000E+00  9.55249411E+00  9.55249411E+00
 -1.91049882E+01  0.00000000E+00  9.55249411E+00  9.55249411E+00 -1.91049882E+01
  0.00000000E+00  9.55249411E+00  9.55249411E+00 -1.91049882E+01  0.00000000E+00
  9.55249411E+00  9.55249411E+00 -1.91049882E+01  0.00000000E+00  9.55249411E+00
  9.55249411E+00 -1.91049882E+01  0.00000000E+00  9.55249411E+00  9.55249411E+00
 -1.91049882E+01  0.00000000E+00  9.55249411E+00  9.55249411E+00 -1.91049882E+01
  0.00000000E+00  9.55249411E+00  9.55249411E+00 -1.91049882E+01  0.00000000E+00
  9.55249411E+00  9.55249411E+00 -1.91049882E+01  0.00000000E+00  9.55249411E+00
  9.55249411E+00 -1.91049882E+01  0.00000000E+00  9.55249411E+00  9.55249411E+00
 -1.91049882E+01  0.00000000E+00  9.55249411E+00  9.55249411E+00 -1.91049882E+01
  0.00000000E+00  9.55249411E+00  9.55249411E+00 -1.91049882E+01  0.00000000E+00
  9.55249411E+00  9.55249411E+00 -1.91049882E+01  0.00000000E+00  9.55249411E+00
  9.55249411E+00 -1.91049882E+01  0.00000000E+00  9.55249411E+00  9.55249411E+00
 -1.91049882E+01  0.00000000E+00  9.55249411E+00  9.55249411E+00 -1.91049882E+01
  0.00000000E+00  9.55249411E+00  9.55249411E+00 -1.91049882E+01  0.00000000E+00
  9.55249411E+00  9.55249411E+00 -1.91049882E+01  0.00000000E+00  9.55249411E+00
  9.55249411E+00 -1.91049882E+01  0.00000000E+00  9.55249411E+00  9.55249411E+00
 -1.91049882E+01  0.00000000E+00  9.55249411E+00  9.55249411E+00 -1.91049882E+01
  0.00000000E+00  9.55249411E+00  9.55249411E+00 -1.91049882E+01  0.00000000E+00
  9.55249411E+00  9.55249411E+00 -1.91049882E+01  0.00000000E+00  9.55249411E+00
  9.55249411E+00 -1.91049882E+01  0.00000000E+00  9.55249411E+00  9.55249411E+00
 -1.91049882E+01  0.00000000E+00  9.55249411E+00  9.55249411E+00 -1.91049882E+01
  0.00000000E+00  9.55249411E+00  9.55249411E+00 -1.91049882E+01  0.00000000E+00
  9.55249411E+00  9.55249411E+00 -1.91049882E+01  0.00000000E+00  9.55249411E+00
  9.55249411E+00 -1.91049882E+01  0.00000000E+00  9.55249411E+00  9.55249411E+00
 -1.91049882E+01  0.00000000E+00  9.55249411E+00  9.55249411E+00 -1.91049882E+01
  0.00000000E+00  9.55249411E+00  9.55249411E+00 -1.91049882E+01  0.00000000E+00
  9.55249411E+00  9.55249411E+00 -1.91049882E+01  0.00000000E+00  9.55249411E+00
  9.55249411E+00 -1.91049882E+01  0.00000000E+00  9.55249411E+00  9.55249411E+00
 -1.91049882E+01  0.00000000E+00  9.55249411E+00  9.55249411E+00 -1.91049882E+01
  0.00000000E+00  9.55249411E+00  9.55249411E+00 -1.91049882E+01  0.00000000E+00
  9.55249411E+00  9.55249411E+00 -1.91049882E+01  0.00000000E+00  9.55249411E+00
  9.55249411E+00 -1.91049882E+01  0.00000000E+00  9.55249411E+00  9.55249411E+00
 -1.91049882E+01  0.00000000E+00  9.55249411E+00  9.55249411E+00 -1.91049882E+01
  0.00000000E+00  9.55249411E+00  9.55249411E+00 -1.91049882E+01  0.00000000E+00
  9.55249411E+00  9.55249411E+00 -1.91049882E+01  0.00000000E+00  9.55249411E+00
  9.55249411E+00 -1.91049882E+01  0.00000000E+00  9.55249411E+00  9.55249411E+00
 -1.91049882E+01  0.00000000E+00  9.55249411E+00  9.55249411E+00 -1.91049882E+01
  0.00000000E+00  9.55249411E+00  9.55249411E+00 -1.91049882E+01  0.00000000E+00
  9.55249411E+00  9.55249411E+00 -1.91049882E+01  0.00000000E+00  9.55249411E+00
  9.55249411E+00 -1.91049882E+01  0.00000000E+00  9.55249411E+00  9.55249411E+00
 -1.91049882E+01  0.00000000E+00  9.55249411E+00  9.55249411E+00 -1.91049882E+01
  0.00000000E+00  9.55249411E+00  9.55249411E+00 -1.91049882E+01  0.00000000E+00
  9.55249411E+00  9.55249411E+00 -1.91049882E+01  0.00000000E+00  9.55249411E+00
  9.55249411E+00 -1.91049882E+01  0.00000000E+00  9.55249411E+00  9.55249411E+00
 -1.91049882E+01  0.00000000E+00  9.55249411E+00  9.55249411E+00 -1.91049882E+01
  0.00000000E+00  9.55249411E+00  9.55249411E+00 -1.91049882E+01  0.00000000E+00
  9.55249411E+00  9.55249411E+00 -1.91049882E+01  0.00000000E+00  9.55249411E+00
  9.55249411E+00 -1.91049882E+01  0.00000000E+00  9.55249411E+00  9.55249411E+00
 -1.91049882E+01  0.00000000E+00  9.55249411E+00  9.55249411E+00 -1.91049882E+01
  0.00000000E+00  9.55249411E+00  9.55249411E+00 -1.91049882E+01  0.00000000E+00
  9.55249411E+00  9.55249411E+00 -1.91049882E+01  0.00000000E+00  9.55249411E+00
  9.55249411E+00 -1.91049882E+01  0.00000000E+00  9.55249411E+00  9.55249411E+00
 -1.91049882E+01  0.00000000E+00  9.55249411E+00  9.55249411E+00 -1.91049882E+01
  0.00000000E+00  9.55249411E+00  9.55249411E+00 -1.91049882E+01  0.00000000E+00
  9.55249411E+00  9.55249411E+00 -1.91049882E+01  0.00000000E+00  9.55249411E+00
  9.55249411E+00 -1.91049882E+01  0.00000000E+00  9.55249411E+00  9.55249411E+00
 -1.91049882E+01  0.00000000E+00  9.55249411E+00  9.55249411E+00 -1.91049882E+01
  0.00000000E+00  9.55249411E+00  9.55249411E+00 -1.91049882E+01  0.00000000E+00
  9.55249411E+00  9.55249411E+00 -1.91049882E+01  0.00000000E+00  9.55249411E+00
  9.55249411E+00 -1.91049882E+01  0.00000000E+00  9.55249411E+00  9.55249411E+00
 -1.91049882E+01  0.00000000E+00  9.55249411E+00  9.55249411E+00 -1.91049882E+01
  0.00000000E+00  9.55249411E+00  9.55249411E+00 -1.91049882E+01  0.00000000E+00
  9.55249411E+00  9.55249411E+00 -1.91049882E+01  0.00000000E+00  9.55249411E+00
  9.55249411E+00 -1.91049882E+01  0.00000000E+00  9.55249411E+00  9.55249411E+00
 -1.91049882E+01  0.00000000E+00  9.55249411E+00  9.55249411E+00 -1.91049882E+01
  0.00000000E+00  9.55249411E+00  9.55249411E+00 -1.91049882E+01  0.00000000E+00
  9.55249411E+00  9.55249411E+00 -1.91049882E+01  0.00000000E+00  9.55249411E+00
  9.55249411E+00 -1.91049882E+01  0.00000000E+00  9.55249411E+00  9.55249411E+00
 -1.91049882E+01  0.00000000E+00  9.55249411E+00  9.55249411E+00 -1.91049882E+01
  0.00000000E+00  9.55249411E+00  9.55249411E+00 -1.91049882E+01  0.00000000E+00
  9.55249411E+00  9.55249411E+00 -1.91049882E+01  0.00000000E+00  9.55249411E+00
  9.55249411E+00 -1.91049882E+01  0.00000000E+00  9.55249411E+00  9.55249411E+00
 -1.91049882E+01  0.00000000E+00  9.55249411E+00  9.55249411E+00 -1.91049882E+01
  0.00000000E+00  9.55249411E+00  9.55249411E+00 -1.91049882E+01  0.00000000E+00
  9.55249411E+00  9.55249411E+00 -1.91049882E+01  0.00000000E+00  9.55249411E+00
  9.55249411E+00 -1.91049882E+01  0.00000000E+00  9.55249411E+00  9.55249411E+00
 -1.91049882E+01  0.00000000E+00  9.55249411E+00  9.55249411E+00 -1.91049882E+01
  0.00000000E+00  9.55249411E+00  9.55249411E+00 -1.91049882E+01  0.00000000E+00
  9.55249411E+00  9.55249411E+00 -1.91049882E+01  0.00000000E+00  9.55249411E+00
  9.55249411E+00 -1.91049882E+01  0.00000000E+00  9.55249411E+00  9.55249411E+00
 -1.91049882E+01  0.00000000E+00  9.55249411E+00  9.55249411E+00 -1.91049882E+01
  0.00000000E+00  9.55249411E+00  9.55249411E+00 -1.91049882E+01  0.00000000E+00
  9.55249411E+00  9.55249411E+00 -1.91049882E+01  0.00000000E+00  9.55249411E+00
  9.55249411E+00 -1.91049882E+01  0.00000000E+00  9.55249411E+00  9.55249411E+00
 -1.91049882E+01  0.00000000E+00  9.55249411E+00  9.55249411E+00 -1.91049882E+01
  0.00000000E+00  9.55249411E+00  9.55249411E+00 -1.91049882E+01  0.00000000E+00
  9.55249411E+00  9.55249411E+00 -1.91049882E+01  0.00000000E+00  9.55249411E+00
  9.55249411E+00 -1.91049882E+01  0.00000000E+00  9.55249411E+00  9.55249411E+00
 -1.91049882E+01  0.00000000E+00  9.55249411E+00  9.55249411E+00 -1.91049882E+01
  0.00000000E+00  9.55249411E+00  9.55249411E+00 -1.91049882E+01  0.00000000E+00
  9.55249411E+00  9.55249411E+00 -1.91049882E+01  0.00000000E+00  9.55249411E+00
  9.55249411E+00 -1.91049882E+01  0.00000000E+00  9.55249411E+00  9.55249411E+00
 -1.91049882E+01  0.00000000E+00  9.55249411E+00  9.55249411E+00 -1.91049882E+01
  0.00000000E+00  9.55249411E+00  9.55249411E+00 -1.91049882E+01  0.00000000E+00
  9.55249411E+00  9.55249411E+00 -1.91049882E+01  0.00000000E+00  9.55249411E+00
  9.55249411E+00 -1.91049882E+01  0.00000000E+00  9.55249411E+00  9.55249411E+00
 -1.91049882E+01  0.00000000E+00  9.55249411E+00  9.55249411E+00 -1.91049882E+01
  0.00000000E+00  9.55249411E+00  9.55249411E+00 -1.91049882E+01  0.00000000E+00
  9.55249411E+00  9.55249411E+00 -1.91049882E+01  0.00000000E+00  9.55249411E+00
  9.55249411E+00 -1.91049882E+01  0.00000000E+00  9.55249411E+00  9.55249411E+00
 -1.91049882E+01  0.00000000E+00  9.55249411E+00  9.55249411E+00 -1.91049882E+01
  0.00000000E+00  9.55249411E+00  9.55249411E+00 -1.91049882E+01  0.00000000E+00
  9.55249411E+00  9.55249411E+00 -1.91049882E+01  0.00000000E+00  9.55249411E+00
  9.55249411E+00 -1.91049882E+01  0.00000000E+00  9.55249411E+00  9.55249411E+00
 -1.91049882E+01  0.00000000E+00  9.55249411E+00  9.55249411E+00 -1.91049882E+01
  0.00000000E+00  9.55249411E+00  9.55249411E+00 -1.91049882E+01  0.00000000E+00
  9.55249411E+00  9.55249411E+00 -1.91049882E+01  0.00000000E+00  9.55249411E+00
  9.55249411E+00 -1.91049882E+01  0.00000000E+00  9.55249411E+00  9.55249411E+00
 -1.91049882E+01  0.00000000E+00  9.55249411E+00  9.55249411E+00 -1.91049882E+01
  0.00000000E+00  9.55249411E+00  9.55249411E+00 -1.91049882E+01  0.00000000E+00
  9.55249411E+00  9.55249411E+00 -1.91049882E+01  0.00000000E+00  9.55249411E+00
  9.55249411E+00 -1.91049882E+01  0.00000000E+00  9.55249411E+00  9.55249411E+00
 -1.91049882E+01  0.00000000E+00  9.55249411E+00  9.55249411E+00 -1.91049882E+01
  0.00000000E+00  9.55249411E+00  9.55249411E+00 -1.91049882E+01  0.00000000E+00
  9.55249411E+00  9.55249411E+00 -1.91049882E+01  0.00000000E+00  9.55249411E+00
  9.55249411E+00 -1.91049882E+01  0.00000000E+00  9.55249411E+00  9.55249411E+00
 -1.91049882E+01  0.00000000E+00  9.55249411E+00  9.55249411E+00 -1.91049882E+01
  0.00000000E+00  9.55249411E+00  9.55249411E+00 -1.91049882E+01  0.00000000E+00
  9.55249411E+00  9.55249411E+00 -1.91049882E+01  0.00000000E+00  9.55249411E+00
  9.55249411E+00 -1.91049882E+01  0.00000000E+00  9.55249411E+00  9.55249411E+00
 -1.91049882E+01  0.00000000E+00  9.55249411E+00  9.55249411E+00 -1.91049882E+01
  0.00000000E+00  9.55249411E+00  9.55249411E+00 -1.91049882E+01  0.00000000E+00
  9.55249411E+00  9.55249411E+00 -1.91049882E+01  0.00000000E+00  9.55249411E+00
  9.55249411E+00 -1.91049882E+01  0.00000000E+00  9.55249411E+00  9.55249411E+00
 -1.91049882E+01  0.00000000E+00  9.55249411E+00  9.55249411E+00 -1.91049882E+01
  0.00000000E+00  9.55249411E+00  9.55249411E+00 -1.91049882E+01  0.00000000E+00
  9.55249411E+00  9.55249411E+00 -1.91049882E+01  0.00000000E+00  9.55249411E+00
  9.55249411E+00 -1.91049882E+01  0.00000000E+00  9.55249411E+00  9.55249411E+00
 -1.91049882E+01  0.00000000E+00  9.55249411E+00  9.55249411E+00 -1.91049882E+01
  0.00000000E+00  9.55249411E+00  9.55249411E+00 -1.91049882E+01  0.00000000E+00
  9.55249411E+00  9.55249411E+00 -1.91049882E+01  0.00000000E+00  9.55249411E+00
  9.55249411E+00 -1.91049882E+01  0.00000000E+00  9.55249411E+00  9.55249411E+00
 -1.91049882E+01  0.00000000E+00  9.55249411E+00  9.55249411E+00 -1.91049882E+01
  0.00000000E+00  9.55249411E+00  9.55249411E+00 -1.91049882E+01  0.00000000E+00
  9.55249411E+00  9.55249411E+00 -1.91049882E+01  0.00000000E+00  9.55249411E+00
  9.55249411E+00 -1.91049882E+01  0.00000000E+00  9.55249411E+00  9.55249411E+00
 -1.91049882E+01  0.00000000E+00  9.55249411E+00  9.55249411E+00 -1.91049882E+01
  0.00000000E+00  9.55249411E+00  9.55249411E+00 -1.91049882E+01  0.00000000E+00
  9.55249411E+00  9.55249411E+00 -1.91049882E+01  0.00000000E+00  9.55249411E+00
  9.55249411E+00 -1.91049882E+01  0.00000000E+00  9.55249411E+00  9.55249411E+00
 -1.91049882E+01  0.00000000E+00  9.55249411E+00  9.55249411E+00 -1.91049882E+01
  0.00000000E+00  9.55249411E+00  9.55249411E+00 -1.91049882E+01  0.00000000E+00
  9.55249411E+00  9.55249411E+00 -1.91049882E+01  0.00000000E+00  9.55249411E+00
  9.55249411E+00 -1.91049882E+01  0.00000000E+00  9.55249411E+00  9.55249411E+00
 -1.91049882E+01  0.00000000E+00  9.55249411E+00  9.55249411E+00 -1.91049882E+01
  0.00000000E+00  9.55249411E+00  9.55249411E+00 -1.91049882E+01  0.00000000E+00
  9.55249411E+00  9.55249411E+00 -1.91049882E+01  0.00000000E+00  9.55249411E+00
  9.55249411E+00 -1.91049882E+01  0.00000000E+00  9.55249411E+00  9.55249411E+00
 -1.91049882E+01  0.00000000E+00  9.55249411E+00  9.55249411E+00 -1.91049882E+01
  0.00000000E+00  9.55249411E+00  9.55249411E+00 -1.91049882E+01  0.00000000E+00
  9.55249411E+00  9.55249411E+00 -1.91049882E+01  0.00000000E+00  9.55249411E+00
  9.55249411E+00 -1.91049882E+01  0.00000000E+00  9.55249411E+00  9.55249411E+00
 -1.91049882E+01  0.00000000E+00  9.55249411E+00  9.55249411E+00 -1.91049882E+01
  0.00000000E+00  9.55249411E+00  9.55249411E+00 -1.91049882E+01  0.00000000E+00
  9.55249411E+00  9.55249411E+00 -1.91049882E+01  0.00000000E+00  9.55249411E+00
  9.55249411E+00 -1.91049882E+01  0.00000000E+00  9.55249411E+00  9.55249411E+00
 -1.91049882E+01  0.00000000E+00  9.55249411E+00  9.55249411E+00 -1.91049882E+01
  0.00000000E+00  9.55249411E+00  9.55249411E+00 -1.91049882E+01  0.00000000E+00
  9.55249411E+00  9.55249411E+00 -1.91049882E+01  0.00000000E+00  9.55249411E+00
  9.55249411E+00 -1.91049882E+01  0.00000000E+00  9.55249411E+00  9.55249411E+00
 -1.91049882E+01  0.00000000E+00  9.55249411E+00  9.55249411E+00 -1.91049882E+01
  0.00000000E+00  9.55249411E+00  9.55249411E+00 -1.91049882E+01  0.00000000E+00
  9.55249411E+00  9.55249411E+00 -1.91049882E+01  0.00000000E+00  9.55249411E+00
  9.55249411E+00 -1.91049882E+01  0.00000000E+00  9.55249411E+00  9.55249411E+00
 -1.91049882E+01  0.00000000E+00  9.55249411E+00  9.55249411E+00 -1.91049882E+01
  0.00000000E+00  9.55249411E+00  9.55249411E+00 -1.91049882E+01  0.00000000E+00
  9.55249411E+00  9.55249411E+00 -1.91049882E+01  0.00000000E+00  9.55249411E+00
  9.55249411E+00 -1.91049882E+01  0.00000000E+00  9.55249411E+00  9.55249411E+00
 -1.91049882E+01  0.00000000E+00  9.55249411E+00  9.55249411E+00 -1.91049882E+01
  0.00000000E+00  9.55249411E+00  9.55249411E+00 -1.91049882E+01  0.00000000E+00
  9.55249411E+00  9.55249411E+00 -1.91049882E+01  0.00000000E+00  9.55249411E+00
  9.55249411E+00 -1.91049882E+01  0.00000000E+00  9.55249411E+00  9.55249411E+00
 -1.91049882E+01  0.00000000E+00  9.55249411E+00  9.55249411E+00 -1.91049882E+01
  0.00000000E+00  9.55249411E+00  9.55249411E+00 -1.91049882E+01  0.00000000E+00
  9.55249411E+00  9.55249411E+00 -1.91049882E+01  0.00000000E+00  9.55249411E+00
  9.55249411E+00 -1.91049882E+01  0.00000000E+00  9.55249411E+00  9.55249411E+00
 -1.91049882E+01  0.00000000E+00  9.55249411E+00  9.55249411E+00 -1.91049882E+01
  0.00000000E+00  9.55249411E+00  9.55249411E+00 -1.91049882E+01  0.00000000E+00
  9.55249411E+00  9.55249411E+00 -1.91049882E+01  0.00000000E+00  9.55249411E+00
  9.55249411E+00 -1.91049882E+01  0.00000000E+00  9.55249411E+00  9.55249411E+00
 -1.91049882E+01  0.00000000E+00  9.55249411E+00  9.55249411E+00 -1.91049882E+01
  0.00000000E+00  9.55249411E+00  9.55249411E+00 -1.91049882E+01  0.00000000E+00
  9.55249411E+00  9.55249411E+00 -1.91049882E+01  0.00000000E+00  9.55249411E+00
  9.55249411E+00 -1.91049882E+01  0.00000000E+00  9.55249411E+00  9.55249411E+00
 -1.91049882E+01  0.00000000E+00  9.55249411E+00  9.55249411E+00 -1.91049882E+01
  0.00000000E+00  9.55249411E+00  9.55249411E+00 -1.91049882E+01  0.00000000E+00
  9.55249411E+00  9.55249411E+00 -1.91049882E+01  0.00000000E+00  9.55249411E+00
  9.55249411E+00 -1.91049882E+01  0.00000000E+00  9.55249411E+00  9.55249411E+00
 -1.91049882E+01  0.00000000E+00  9.55249411E+00  9.55249411E+00 -1.91049882E+01
  0.00000000E+00  9.55249411E+00  9.55249411E+00 -1.91049882E+01  0.00000000E+00
  9.55249411E+00  9.55249411E+00 -1.91049882E+01  0.00000000E+00  9.55249411E+00
  9.55249411E+00 -1.91049882E+01  0.00000000E+00  9.55249411E+00  9.55249411E+00
 -1.91049882E+01  0.00000000E+00  9.55249411E+00  9.55249411E+00 -1.91049882E+01
  0.00000000E+00  9.55249411E+00  9.55249411E+00 -1.91049882E+01  0.00000000E+00
  9.55249411E+00  9.55249411E+00 -1.91049882E+01  0.00000000E+00  9.55249411E+00
  9.55249411E+00 -1.91049882E+01  0.00000000E+00  9.55249411E+00  9.55249411E+00
 -1.91049882E+01  0.00000000E+00  9.55249411E+00  9.55249411E+00 -1.91049882E+01
  0.00000000E+00  9.55249411E+00  9.55249411E+00 -1.91049882E+01  0.00000000E+00
  9.55249411E+00  9.55249411E+00 -1.91049882E+01  0.00000000E+00  9.55249411E+00
  9.55249411E+00 -1.91049882E+01  0.00000000E+00  9.55249411E+00  9.55249411E+00
 -1.91049882E+01  0.00000000E+00  9.55249411E+00  9.55249411E+00 -1.91049882E+01
  0.00000000E+00  9.55249411E+00  9.55249411E+00 -1.91049882E+01  0.00000000E+00
  9.55249411E+00  9.55249411E+00 -1.91049882E+01  0.00000000E+00  9.55249411E+00
  9.55249411E+00 -1.91049882E+01  0.00000000E+00  9.55249411E+00  9.55249411E+00
 -1.91049882E+01  0.00000000E+00  9.55249411E+00  9.55249411E+00 -1.91049882E+01
  0.00000000E+00  9.55249411E+00  9.55249411E+00 -1.91049882E+01  0.00000000E+00
  9.55249411E+00  9.55249411E+00 -1.91049882E+01  0.00000000E+00  9.55249411E+00
  9.55249411E+00 -1.91049882E+01  0.00000000E+00  9.55249411E+00  9.55249411E+00
 -1.91049882E+01  0.00000000E+00  9.55249411E+00  9.55249411E+00 -1.91049882E+01
  0.00000000E+00  9.55249411E+00  9.55249411E+00 -1.91049882E+01  0.00000000E+00
  9.55249411E+00  9.55249411E+00 -1.91049882E+01  0.00000000E+00  9.55249411E+00
  9.55249411E+00 -1.91049882E+01  0.00000000E+00  9.55249411E+00  9.55249411E+00
 -1.91049882E+01  0.00000000E+00  9.55249411E+00  9.55249411E+00 -1.91049882E+01
  0.00000000E+00  9.55249411E+00  9.55249411E+00 -1.91049882E+01  0.00000000E+00
  9.55249411E+00  9.55249411E+00 -1.91049882E+01  0.00000000E+00  9.55249411E+00
  9.55249411E+00 -1.91049882E+01  0.00000000E+00  9.55249411E+00  9.55249411E+00
 -1.91049882E+01  0.00000000E+00  9.55249411E+00  9.55249411E+00 -1.91049882E+01
  0.00000000E+00  9.55249411E+00  9.55249411E+00 -1.91049882E+01  0.00000000E+00
  9.55249411E+00  9.55249411E+00 -1.91049882E+01  0.00000000E+00  9.55249411E+00
  9.55249411E+00 -1.91049882E+01  0.00000000E+00  9.55249411E+00  9.55249411E+00
 -1.91049882E+01  0.00000000E+00  9.55249411E+00  9.55249411E+00 -1.91049882E+01
  0.00000000E+00  9.55249411E+00  9.55249411E+00 -1.91049882E+01  0.00000000E+00
  9.55249411E+00  9.55249411E+00 -1.91049882E+01  0.00000000E+00  9.55249411E+00
  9.55249411E+00 -1.91049882E+01  0.00000000E+00  9.55249411E+00  9.55249411E+00
 -1.91049882E+01  0.00000000E+00  9.55249411E+00  9.55249411E+00 -1.91049882E+01
  0.00000000E+00  9.55249411E+00  9.55249411E+00 -1.91049882E+01  0.00000000E+00
  9.55249411E+00  9.55249411E+00 -1.91049882E+01  0.00000000E+00  9.55249411E+00
  9.55249411E+00 -1.91049882E+01  0.00000000E+00  9.55249411E+00  9.55249411E+00
 -1.91049882E+01  0.00000000E+00  9.55249411E+00  9.55249411E+00 -1.91049882E+01
  0.00000000E+00  9.55249411E+00  9.55249411E+00 -1.91049882E+01  0.00000000E+00
  9.55249411E+00  9.55249411E+00 -1.91049882E+01  0.00000000E+00  9.55249411E+00
  9.55249411E+00 -1.91049882E+01  0.00000000E+00  9.55249411E+00  9.55249411E+00
 -1.91049882E+01  0.00000000E+00  9.55249411E+00  9.55249411E+00 -1.91049882E+01
  0.00000000E+00  9.55249411E+00  9.55249411E+00 -1.91049882E+01  0.00000000E+00
  9.55249411E+00  9.55249411E+00 -1.91049882E+01  0.00000000E+00  9.55249411E+00
  9.55249411E+00 -1.91049882E+01  0.00000000E+00  9.55249411E+00  9.55249411E+00
 -1.91049882E+01  0.00000000E+00  9.55249411E+00  9.55249411E+00 -1.91049882E+01
  0.00000000E+00  9.55249411E+00  9.55249411E+00 -1.91049882E+01  0.00000000E+00
  9.55249411E+00  9.55249411E+00 -1.91049882E+01  0.00000000E+00  9.55249411E+00
  9.55249411E+00 -1.91049882E+01  0.00000000E+00  9.55249411E+00  9.55249411E+00
 -1.91049882E+01  0.00000000E+00  9.55249411E+00  9.55249411E+00 -1.91049882E+01
  0.00000000E+00  9.55249411E+00  9.55249411E+00 -1.91049882E+01  0.00000000E+00
  9.55249411E+00  9.55249411E+00 -1.91049882E+01  0.00000000E+00  9.55249411E+00
  9.55249411E+00 -1.91049882E+01  0.00000000E+00  9.55249411E+00  9.55249411E+00
 -1.91049882E+01  0.00000000E+00  9.55249411E+00  9.55249411E+00 -1.91049882E+01
  0.00000000E+00  9.55249411E+00  9.55249411E+00 -1.91049882E+01  0.00000000E+00
  9.55249411E+00  9.55249411E+00 -1.91049882E+01  0.00000000E+00  9.55249411E+00
  9.55249411E+00 -1.91049882E+01  0.00000000E+00  9.55249411E+00  9.55249411E+00
 -1.91049882E+01  0.00000000E+00  9.55249411E+00  9.55249411E+00 -1.91049882E+01
  0.00000000E+00  9.55249411E+00  9.55249411E+00 -1.91049882E+01  0.00000000E+00
  9.55249411E+00  9.55249411E+00 -1.91049882E+01  0.00000000E+00  9.55249411E+00
  9.55249411E+00 -1.91049882E+01  0.00000000E+00  9.55249411E+00  9.55249411E+00
 -1.91049882E+01  0.00000000E+00  9.55249411E+00  9.55249411E+00 -1.91049882E+01
  0.00000000E+00  9.55249411E+00  9.55249411E+00 -1.91049882E+01  0.00000000E+00
  9.55249411E+00  9.55249411E+00 -1.91049882E+01  0.00000000E+00  9.55249411E+00
  9.55249411E+00 -1.91049882E+01  0.00000000E+00  9.55249411E+00  9.55249411E+00
 -1.91049882E+01  0.00000000E+00  9.55249411E+00  9.55249411E+00 -1.91049882E+01
  0.00000000E+00  9.55249411E+00  9.55249411E+00 -1.91049882E+01  0.00000000E+00
  9.55249411E+00  9.55249411E+00 -1.91049882E+01  0.00000000E+00  9.55249411E+00
  9.55249411E+00 -1.91049882E+01  0.00000000E+00  9.55249411E+00  9.55249411E+00
 -1.91049882E+01  0.00000000E+00  9.55249411E+00  9.55249411E+00 -1.91049882E+01
  0.00000000E+00  9.55249411E+00  9.55249411E+00 -1.91049882E+01  0.00000000E+00
  9.55249411E+00  9.55249411E+00 -1.91049882E+01  0.00000000E+00  9.55249411E+00
  9.55249411E+00 -1.91049882E+01  0.00000000E+00  9.55249411E+00  9.55249411E+00
 -1.91049882E+01  0.00000000E+00  9.55249411E+00  9.55249411E+00 -1.91049882E+01
  0.00000000E+00  9.55249411E+00  9.55249411E+00 -1.91049882E+01  0.00000000E+00
  9.55249411E+00  9.55249411E+00 -1.91049882E+01  0.00000000E+00  9.55249411E+00
  9.55249411E+00 -1.91049882E+01  0.00000000E+00  9.55249411E+00  9.55249411E+00
 -1.91049882E+01  0.00000000E+00  9.55249411E+00  9.55249411E+00 -1.91049882E+01
  0.00000000E+00  9.55249411E+00  9.55249411E+00 -1.91049882E+01  0.00000000E+00
  9.55249411E+00  9.55249411E+00 -1.91049882E+01  0.00000000E+00  9.55249411E+00
  9.55249411E+00 -1.91049882E+01  0.00000000E+00  9.55249411E+00  9.55249411E+00
 -1.91049882E+01  0.00000000E+00  9.55249411E+00  9.55249411E+00 -1.91049882E+01
  0.00000000E+00  9.55249411E+00  9.55249411E+00 -1.91049882E+01  0.00000000E+00
  9.55249411E+00  9.55249411E+00 -1.91049882E+01  0.00000000E+00  9.55249411E+00
  9.55249411E+00 -1.91049882E+01  0.00000000E+00  9.55249411E+00  9.55249411E+00
 -1.91049882E+01  0.00000000E+00  9.55249411E+00  9.55249411E+00 -1.91049882E+01
  0.00000000E+00  9.55249411E+00  9.55249411E+00 -1.91049882E+01  0.00000000E+00
  9.55249411E+00  9.55249411E+00 -1.91049882E+01  0.00000000E+00  9.55249411E+00
  9.55249411E+00 -1.91049882E+01  0.00000000E+00  9.55249411E+00  9.55249411E+00
 -1.91049882E+01  0.00000000E+00  9.55249411E+00  9.55249411E+00 -1.91049882E+01
  0.00000000E+00  9.55249411E+00  9.55249411E+00 -1.91049882E+01  0.00000000E+00
  9.55249411E+00  9.55249411E+00 -1.91049882E+01  0.00000000E+00  9.55249411E+00
  9.55249411E+00 -1.91049882E+01  0.00000000E+00  9.55249411E+00  9.55249411E+00
 -1.91049882E+01  0.00000000E+00  9.55249411E+00  9.55249411E+00 -1.91049882E+01
  0.00000000E+00  9.55249411E+00  9.55249411E+00 -1.91049882E+01  0.00000000E+00
  9.55249411E+00  9.55249411E+00 -1.91049882E+01  0.00000000E+00  9.55249411E+00
  9.55249411E+00 -1.91049882E+01  0.00000000E+00  9.55249411E+00  9.55249411E+00
 -1.91049882E+01  0.00000000E+00  9.55249411E+00  9.55249411E+00 -1.91049882E+01
  0.00000000E+00  9.55249411E+00  9.55249411E+00 -1.91049882E+01  0.00000000E+00
  9.55249411E+00  9.55249411E+00 -1.91049882E+01  0.00000000E+00  9.55249411E+00
  9.55249411E+00 -1.91049882E+01  0.00000000E+00  9.55249411E+00  9.55249411E+00
 -1.91049882E+01  0.00000000E+00  9.55249411E+00  9.55249411E+00 -1.91049882E+01
  0.00000000E+00  9.55249411E+00  9.55249411E+00 -1.91049882E+01  0.00000000E+00
  9.55249411E+00  9.55249411E+00 -1.91049882E+01  0.00000000E+00  9.55249411E+00
  9.55249411E+00 -1.91049882E+01  0.00000000E+00  9.55249411E+00  9.55249411E+00
 -1.91049882E+01  0.00000000E+00  9.55249411E+00  9.55249411E+00 -1.91049882E+01
  0.00000000E+00  9.55249411E+00  9.55249411E+00 -1.91049882E+01  0.00000000E+00
  9.55249411E+00  9.55249411E+00 -1.91049882E+01  0.00000000E+00  9.55249411E+00
  9.55249411E+00 -1.91049882E+01  0.00000000E+00  9.55249411E+00  9.55249411E+00
 -1.91049882E+01  0.00000000E+00  9.55249411E+00  9.55249411E+00 -1.91049882E+01
  0.00000000E+00  9.55249411E+00  9.55249411E+00 -1.91049882E+01  0.00000000E+00
  9.55249411E+00  9.55249411E+00 -1.91049882E+01  0.00000000E+00  9.55249411E+00
  9.55249411E+00 -1.91049882E+01  0.00000000E+00  9.55249411E+00  9.55249411E+00
 -1.91049882E+01  0.00000000E+00  9.55249411E+00  9.55249411E+00 -1.91049882E+01
  0.00000000E+00  9.55249411E+00  9.55249411E+00 -1.91049882E+01  0.00000000E+00
  9.55249411E+00  9.55249411E+00 -1.91049882E+01  0.00000000E+00  9.55249411E+00
  9.55249411E+00 -1.91049882E+01  0.00000000E+00  9.55249411E+00  9.55249411E+00
 -1.91049882E+01  0.00000000E+00  9.55249411E+00  9.55249411E+00 -1.91049882E+01
  0.00000000E+00  9.55249411E+00  9.55249411E+00 -1.91049882E+01  0.00000000E+00
  9.55249411E+00  9.55249411E+00 -1.91049882E+01  0.00000000E+00  9.55249411E+00
  9.55249411E+00 -1.91049882E+01  0.00000000E+00  9.55249411E+00  9.55249411E+00
 -1.91049882E+01  0.00000000E+00  9.55249411E+00  9.55249411E+00 -1.91049882E+01
  0.00000000E+00  9.55249411E+00  9.55249411E+00 -1.91049882E+01  0.00000000E+00
  9.55249411E+00  9.55249411E+00 -1.91049882E+01  0.00000000E+00  9.55249411E+00
  9.55249411E+00 -1.91049882E+01  0.00000000E+00  9.55249411E+00  9.55249411E+00
 -1.91049882E+01  0.00000000E+00  9.55249411E+00  9.55249411E+00 -1.91049882E+01
  0.00000000E+00  9.55249411E+00  9.55249411E+00 -1.91049882E+01  0.00000000E+00
  9.55249411E+00  9.55249411E+00 -1.91049882E+01  0.00000000E+00  9.55249411E+00
  9.55249411E+00 -1.91049882E+01  0.00000000E+00  9.55249411E+00  9.55249411E+00
 -1.91049882E+01  0.00000000E+00  9.55249411E+00  9.55249411E+00 -1.91049882E+01
  0.00000000E+00  9.55249411E+00  9.55249411E+00 -1.91049882E+01  0.00000000E+00
  9.55249411E+00  9.55249411E+00 -1.91049882E+01  0.00000000E+00  9.55249411E+00
  9.55249411E+00 -1.91049882E+01  0.00000000E+00  9.55249411E+00  9.55249411E+00
 -1.91049882E+01  0.00000000E+00  9.55249411E+00  9.55249411E+00 -1.91049882E+01
  0.00000000E+00  9.55249411E+00  9.55249411E+00 -1.91049882E+01  0.00000000E+00
  9.55249411E+00  9.55249411E+00 -1.91049882E+01  0.00000000E+00  9.55249411E+00
  9.55249411E+00 -1.91049882E+01  0.00000000E+00  9.55249411E+00  9.55249411E+00
 -1.91049882E+01  0.00000000E+00  9.55249411E+00  9.55249411E+00 -1.91049882E+01
  0.00000000E+00  9.55249411E+00  9.55249411E+00 -1.91049882E+01  0.00000000E+00
  9.55249411E+00  9.55249411E+00 -1.91049882E+01  0.00000000E+00  9.55249411E+00
  9.55249411E+00 -1.91049882E+01  0.00000000E+00  9.55249411E+00  9.55249411E+00
 -1.91049882E+01  0.00000000E+00  9.55249411E+00  9.55249411E+00 -1.91049882E+01
  0.00000000E+00  9.55249411E+00  9.55249411E+00 -1.91049882E+01  0.00000000E+00
  9.55249411E+00  9.55249411E+00 -1.91049882E+01  0.00000000E+00  9.55249411E+00
  9.55249411E+00 -1.91049882E+01  0.00000000E+00  9.55249411E+00  9.55249411E+00
 -1.91049882E+01  0.00000000E+00  9.55249411E+00  9.55249411E+00 -1.91049882E+01
  0.00000000E+00  9.55249411E+00  9.55249411E+00 -1.91049882E+01  0.00000000E+00
  9.55249411E+00  9.55249411E+00 -1.91049882E+01  0.00000000E+00  9.55249411E+00
  9.55249411E+00 -1.91049882E+01  0.00000000E+00  9.55249411E+00  9.55249411E+00
 -1.91049882E+01  0.00000000E+00  9.55249411E+00  9.55249411E+00 -1.91049882E+01
  0.00000000E+00  9.55249411E+00  9.55249411E+00 -1.91049882E+01  0.00000000E+00
  9.55249411E+00  9.55249411E+00 -1.91049882E+01  0.00000000E+00  9.55249411E+00
  9.55249411E+00 -1.91049882E+01  0.00000000E+00  9.55249411E+00  9.55249411E+00
 -1.91049882E+01  0.00000000E+00  9.55249411E+00  9.55249411E+00 -1.91049882E+01
  0.00000000E+00  9.55249411E+00  9.55249411E+00 -1.91049882E+01  0.00000000E+00
  9.55249411E+00  9.55249411E+00 -1.91049882E+01  0.00000000E+00  9.55249411E+00
  9.55249411E+00 -1.91049882E+01  0.00000000E+00  9.55249411E+00  9.55249411E+00
 -1.91049882E+01  0.00000000E+00  9.55249411E+00  9.55249411E+00 -1.91049882E+01
  0.00000000E+00  9.55249411E+00  9.55249411E+00 -1.91049882E+01  0.00000000E+00
  9.55249411E+00  9.55249411E+00 -1.91049882E+01  0.00000000E+00  9.55249411E+00
  9.55249411E+00 -1.91049882E+01  0.00000000E+00  9.55249411E+00  9.55249411E+00
 -1.91049882E+01  0.00000000E+00  9.55249411E+00  9.55249411E+00 -1.91049882E+01
  0.00000000E+00  9.55249411E+00  9.55249411E+00 -1.91049882E+01  0.00000000E+00
  9.55249411E+00  9.55249411E+00 -1.91049882E+01  0.00000000E+00  9.55249411E+00
  9.55249411E+00 -1.91049882E+01  0.00000000E+00  9.55249411E+00  9.55249411E+00
 -1.91049882E+01  0.00000000E+00  9.55249411E+00  9.55249411E+00 -1.91049882E+01
  0.00000000E+00  9.55249411E+00  9.55249411E+00 -1.91049882E+01  0.00000000E+00
  9.55249411E+00  9.55249411E+00 -1.91049882E+01  0.00000000E+00  9.55249411E+00
  9.55249411E+00 -1.91049882E+01  0.00000000E+00  9.55249411E+00  9.55249411E+00
 -1.91049882E+01  0.00000000E+00  9.55249411E+00  9.55249411E+00 -1.91049882E+01
  0.00000000E+00  9.55249411E+00  9.55249411E+00 -1.91049882E+01  0.00000000E+00
  9.55249411E+00  9.55249411E+00 -1.91049882E+01  0.00000000E+00  9.55249411E+00
  9.55249411E+00 -1.91049882E+01  0.00000000E+00  9.55249411E+00  9.55249411E+00
 -1.91049882E+01  0.00000000E+00  9.55249411E+00  9.55249411E+00 -1.91049882E+01
  0.00000000E+00  9.55249411E+00  9.55249411E+00 -1.91049882E+01  0.00000000E+00
  9.55249411E+00  9.55249411E+00 -1.91049882E+01  0.00000000E+00  9.55249411E+00
  9.55249411E+00 -1.91049882E+01  0.00000000E+00  9.55249411E+00  9.55249411E+00
 -1.91049882E+01  0.00000000E+00  9.55249411E+00  9.55249411E+00 -1.91049882E+01
  0.00000000E+00  9.55249411E+00  9.55249411E+00 -1.91049882E+01  0.00000000E+00
  9.55249411E+00  9.55249411E+00 -1.91049882E+01  0.00000000E+00  9.55249411E+00
  9.55249411E+00 -1.91049882E+01  0.00000000E+00  9.55249411E+00  9.55249411E+00
 -1.91049882E+01  0.00000000E+00  9.55249411E+00  9.55249411E+00 -1.91049882E+01
  0.00000000E+00  9.55249411E+00  9.55249411E+00 -1.91049882E+01  0.00000000E+00
  9.55249411E+00  9.55249411E+00 -1.91049882E+01  0.00000000E+00  9.55249411E+00
  9.55249411E+00 -1.91049882E+01  0.00000000E+00  9.55249411E+00  9.55249411E+00
 -1.91049882E+01  0.00000000E+00  9.55249411E+00  9.55249411E+00 -1.91049882E+01
  0.00000000E+00  9.55249411E+00  9.55249411E+00 -1.91049882E+01  0.00000000E+00
  9.55249411E+00  9.55249411E+00 -1.91049882E+01  0.00000000E+00  9.55249411E+00
  9.55249411E+00 -1.91049882E+01  0.00000000E+00  9.55249411E+00  9.55249411E+00
 -1.91049882E+01  0.00000000E+00  9.55249411E+00  9.55249411E+00 -1.91049882E+01
  0.00000000E+00  9.55249411E+00  9.55249411E+00 -1.91049882E+01  0.00000000E+00
  9.55249411E+00  9.55249411E+00 -1.91049882E+01  0.00000000E+00  9.55249411E+00
  9.55249411E+00 -1.91049882E+01  0.00000000E+00  9.55249411E+00  9.55249411E+00
 -1.91049882E+01  0.00000000E+00  9.55249411E+00  9.55249411E+00 -1.91049882E+01
  0.00000000E+00  9.55249411E+00  9.55249411E+00 -1.91049882E+01  0.00000000E+00
  9.55249411E+00  9.55249411E+00 -1.91049882E+01  0.00000000E+00  9.55249411E+00
  9.55249411E+00 -1.91049882E+01  0.00000000E+00  9.55249411E+00  9.55249411E+00
 -1.91049882E+01  0.00000000E+00  9.55249411E+00  9.55249411E+00 -1.91049882E+01
  0.00000000E+00  9.55249411E+00  9.55249411E+00 -1.91049882E+01  0.00000000E+00
  9.55249411E+00  9.55249411E+00 -1.91049882E+01  0.00000000E+00  9.55249411E+00
  9.55249411E+00 -1.91049882E+01  0.00000000E+00  9.55249411E+00  9.55249411E+00
 -1.91049882E+01  0.00000000E+00  9.55249411E+00  9.55249411E+00 -1.91049882E+01
  0.00000000E+00  9.55249411E+00  9.55249411E+00 -1.91049882E+01  0.00000000E+00
  9.55249411E+00  9.55249411E+00 -1.91049882E+01  0.00000000E+00  9.55249411E+00
  9.55249411E+00 -1.91049882E+01  0.00000000E+00  9.55249411E+00  9.55249411E+00
 -1.91049882E+01  0.00000000E+00  9.55249411E+00  9.55249411E+00 -1.91049882E+01
  0.00000000E+00  9.55249411E+00  9.55249411E+00 -1.91049882E+01  0.00000000E+00
  9.55249411E+00  9.55249411E+00 -1.91049882E+01  0.00000000E+00  9.55249411E+00
  9.55249411E+00 -1.91049882E+01  0.00000000E+00  9.55249411E+00  9.55249411E+00
 -1.91049882E+01  0.00000000E+00  9.55249411E+00  9.55249411E+00 -1.91049882E+01
  0.00000000E+00  9.55249411E+00  9.55249411E+00 -1.91049882E+01  0.00000000E+00
  9.55249411E+00  9.55249411E+00 -1.91049882E+01  0.00000000E+00  9.55249411E+00
  9.55249411E+00 -1.91049882E+01  0.00000000E+00  9.55249411E+00  9.55249411E+00
 -1.91049882E+01  0.00000000E+00  9.55249411E+00  9.55249411E+00 -1.91049882E+01
  0.00000000E+00  9.55249411E+00  9.55249411E+00 -1.91049882E+01  0.00000000E+00
  9.55249411E+00  9.55249411E+00 -1.91049882E+01  0.00000000E+00  9.55249411E+00
  9.55249411E+00 -1.91049882E+01  0.00000000E+00  9.55249411E+00  9.55249411E+00
 -1.91049882E+01  0.00000000E+00  9.55249411E+00  9.55249411E+00 -1.91049882E+01
  0.00000000E+00  9.55249411E+00  9.55249411E+00 -1.91049882E+01  0.00000000E+00
  9.55249411E+00  9.55249411E+00 -1.91049882E+01  0.00000000E+00  9.55249411E+00
  9.55249411E+00 -1.91049882E+01  0.00000000E+00  9.55249411E+00  9.55249411E+00
 -1.91049882E+01  0.00000000E+00  9.55249411E+00  9.55249411E+00 -1.91049882E+01
  0.00000000E+00  9.55249411E+00  9.55249411E+00 -1.91049882E+01  0.00000000E+00
  9.55249411E+00  9.55249411E+00 -1.91049882E+01  0.00000000E+00  9.55249411E+00
  9.55249411E+00 -1.91049882E+01  0.00000000E+00  9.55249411E+00  9.55249411E+00
 -1.91049882E+01  0.00000000E+00  9.55249411E+00  9.55249411E+00 -1.91049882E+01
  0.00000000E+00  9.55249411E+00  9.55249411E+00 -1.91049882E+01  0.00000000E+00
  9.55249411E+00  9.55249411E+00 -1.91049882E+01  0.00000000E+00  9.55249411E+00
  9.55249411E+00 -1.91049882E+01  0.00000000E+00  9.55249411E+00  9.55249411E+00
 -1.91049882E+01  0.00000000E+00  9.55249411E+00  9.55249411E+00 -1.91049882E+01
  0.00000000E+00  9.55249411E+00  9.55249411E+00 -1.91049882E+01  0.00000000E+00
  9.55249411E+00  9.55249411E+00 -1.91049882E+01  0.00000000E+00  9.55249411E+00
  9.55249411E+00 -1.91049882E+01  0.00000000E+00  9.55249411E+00  9.55249411E+00
 -1.91049882E+01  0.00000000E+00  9.55249411E+00  9.55249411E+00 -1.91049882E+01
  0.00000000E+00  9.55249411E+00  9.55249411E+00 -1.91049882E+01  0.00000000E+00
  9.55249411E+00  9.55249411E+00 -1.91049882E+01  0.00000000E+00  9.55249411E+00
  9.55249411E+00 -1.91049882E+01  0.00000000E+00  9.55249411E+00  9.55249411E+00
 -1.91049882E+01  0.00000000E+00  9.55249411E+00  9.55249411E+00 -1.91049882E+01
  0.00000000E+00  9.55249411E+00  9.55249411E+00 -1.91049882E+01  0.00000000E+00
  9.55249411E+00  9.55249411E+00 -1.91049882E+01  0.00000000E+00  9.55249411E+00
  9.55249411E+00 -1.91049882E+01  0.00000000E+00  9.55249411E+00  9.55249411E+00
 -1.91049882E+01  0.00000000E+00  9.55249411E+00  9.55249411E+00 -1.91049882E+01
  0.00000000E+00  9.55249411E+00  9.55249411E+00 -1.91049882E+01  0.00000000E+00
  9.55249411E+00  9.55249411E+00 -1.91049882E+01  0.00000000E+00  9.55249411E+00
  9.55249411E+00 -1.91049882E+01  0.00000000E+00  9.55249411E+00  9.55249411E+00
 -1.91049882E+01  0.00000000E+00  9.55249411E+00  9.55249411E+00 -1.91049882E+01
  0.00000000E+00  9.55249411E+00  9.55249411E+00 -1.91049882E+01  0.00000000E+00
  9.55249411E+00  9.55249411E+00 -1.91049882E+01  0.00000000E+00  9.55249411E+00
  9.55249411E+00 -1.91049882E+01  0.00000000E+00  9.55249411E+00  9.55249411E+00
 -1.91049882E+01  0.00000000E+00  9.55249411E+00  9.55249411E+00 -1.91049882E+01
  0.00000000E+00  9.55249411E+00  9.55249411E+00 -1.91049882E+01  0.00000000E+00
  9.55249411E+00  9.55249411E+00 -1.91049882E+01  0.00000000E+00  9.55249411E+00
  9.55249411E+00 -1.91049882E+01  0.00000000E+00  9.55249411E+00  9.55249411E+00
 -1.91049882E+01  0.00000000E+00  9.55249411E+00  9.55249411E+00 -1.91049882E+01
  0.00000000E+00  9.55249411E+00  9.55249411E+00 -1.91049882E+01  0.00000000E+00
  9.55249411E+00  9.55249411E+00 -1.91049882E+01  0.00000000E+00  9.55249411E+00
  9.55249411E+00 -1.91049882E+01  0.00000000E+00  9.55249411E+00  9.55249411E+00
 -1.91049882E+01  0.00000000E+00  9.55249411E+00  9.55249411E+00 -1.91049882E+01
  0.00000000E+00  9.55249411E+00  9.55249411E+00 -1.91049882E+01  0.00000000E+00
  9.55249411E+00  9.55249411E+00 -1.91049882E+01  0.00000000E+00  9.55249411E+00
  9.55249411E+00 -1.91049882E+01  0.00000000E+00  9.55249411E+00  9.55249411E+00
 -1.91049882E+01  0.00000000E+00  9.55249411E+00  9.55249411E+00 -1.91049882E+01
  0.00000000E+00  9.55249411E+00  9.55249411E+00 -1.91049882E+01  0.00000000E+00
  9.55249411E+00  9.55249411E+00 -1.91049882E+01  0.00000000E+00  9.55249411E+00
  9.55249411E+00 -1.91049882E+01  0.00000000E+00  9.55249411E+00  9.55249411E+00
 -1.91049882E+01  0.00000000E+00  9.55249411E+00  9.55249411E+00 -1.91049882E+01
  0.00000000E+00  9.55249411E+00  9.55249411E+00 -1.91049882E+01  0.00000000E+00
  9.55249411E+00  9.55249411E+00 -1.91049882E+01  0.00000000E+00  9.55249411E+00
  9.55249411E+00 -1.91049882E+01  0.00000000E+00  9.55249411E+00  9.55249411E+00
 -1.91049882E+01  0.00000000E+00  9.55249411E+00  9.55249411E+00 -1.91049882E+01
  0.00000000E+00  9.55249411E+00  9.55249411E+00 -1.91049882E+01  0.00000000E+00
  9.55249411E+00  9.55249411E+00 -1.91049882E+01  0.00000000E+00  9.55249411E+00
  9.55249411E+00 -1.91049882E+01  0.00000000E+00  9.55249411E+00  9.55249411E+00
 -1.91049882E+01  0.00000000E+00  9.55249411E+00  9.55249411E+00 -1.91049882E+01
  0.00000000E+00  9.55249411E+00  9.55249411E+00 -1.91049882E+01  0.00000000E+00
  9.55249411E+00  9.55249411E+00 -1.91049882E+01  0.00000000E+00  9.55249411E+00
  9.55249411E+00 -1.91049882E+01  0.00000000E+00  9.55249411E+00  9.55249411E+00
 -1.91049882E+01  0.00000000E+00  9.55249411E+00  9.55249411E+00 -1.91049882E+01
  0.00000000E+00  9.55249411E+00  9.55249411E+00 -1.91049882E+01  0.00000000E+00
  9.55249411E+00  9.55249411E+00 -1.91049882E+01  0.00000000E+00  9.55249411E+00
  9.55249411E+00 -1.91049882E+01  0.00000000E+00  9.55249411E+00  9.55249411E+00
 -1.91049882E+01  0.00000000E+00  9.55249411E+00  9.55249411E+00 -1.91049882E+01
  0.00000000E+00  9.55249411E+00  9.55249411E+00 -1.91049882E+01  0.00000000E+00
  9.55249411E+00  9.55249411E+00 -1.91049882E+01  0.00000000E+00  9.55249411E+00
  9.55249411E+00 -1.91049882E+01  0.00000000E+00  9.55249411E+00  9.55249411E+00
 -1.91049882E+01  0.00000000E+00  9.55249411E+00  9.55249411E+00 -1.91049882E+01
  0.00000000E+00  9.55249411E+00  9.55249411E+00 -1.91049882E+01  0.00000000E+00
  9.55249411E+00  9.55249411E+00 -1.91049882E+01  0.00000000E+00  9.55249411E+00
  9.55249411E+00 -1.91049882E+01  0.00000000E+00  9.55249411E+00  9.55249411E+00
 -1.91049882E+01  0.00000000E+00  9.55249411E+00  9.55249411E+00 -1.91049882E+01
  0.00000000E+00  9.55249411E+00  9.55249411E+00 -1.91049882E+01  0.00000000E+00
  9.55249411E+00  9.55249411E+00 -1.91049882E+01  0.00000000E+00  9.55249411E+00
  9.55249411E+00 -1.91049882E+01  0.00000000E+00  9.55249411E+00  9.55249411E+00
 -1.91049882E+01  0.00000000E+00  9.55249411E+00  9.55249411E+00 -1.91049882E+01
  0.00000000E+00  9.55249411E+00  9.55249411E+00 -1.91049882E+01  0.00000000E+00
  9.55249411E+00  9.55249411E+00 -1.91049882E+01  0.00000000E+00  9.55249411E+00
  9.55249411E+00 -1.91049882E+01  0.00000000E+00  9.55249411E+00  9.55249411E+00
 -1.91049882E+01  0.00000000E+00  9.55249411E+00  9.55249411E+00 -1.91049882E+01
  0.00000000E+00  9.55249411E+00  9.55249411E+00 -1.91049882E+01  0.00000000E+00
  9.55249411E+00  9.55249411E+00 -1.91049882E+01  0.00000000E+00  9.55249411E+00
  9.55249411E+00 -1.91049882E+01  0.00000000E+00  9.55249411E+00  9.55249411E+00
 -1.91049882E+01  0.00000000E+00  9.55249411E+00  9.55249411E+00 -1.91049882E+01
  0.00000000E+00  9.55249411E+00  9.55249411E+00 -1.91049882E+01  0.00000000E+00
  9.55249411E+00  9.55249411E+00 -1.91049882E+01  0.00000000E+00  9.55249411E+00
  9.55249411E+00 -1.91049882E+01  0.00000000E+00  9.55249411E+00  9.55249411E+00
 -1.91049882E+01  0.00000000E+00  9.55249411E+00  9.55249411E+00 -1.91049882E+01
  0.00000000E+00  9.55249411E+00  9.55249411E+00 -1.91049882E+01  0.00000000E+00
  9.55249411E+00  9.55249411E+00 -1.91049882E+01  0.00000000E+00  9.55249411E+00
  9.55249411E+00 -1.91049882E+01  0.00000000E+00  9.55249411E+00  9.55249411E+00
 -1.91049882E+01  0.00000000E+00  9.55249411E+00  9.55249411E+00 -1.91049882E+01
  0.00000000E+00  9.55249411E+00  9.55249411E+00 -1.91049882E+01  0.00000000E+00
  9.55249411E+00  9.55249411E+00 -1.91049882E+01  0.00000000E+00  9.55249411E+00
  9.55249411E+00 -1.91049882E+01  0.00000000E+00  9.55249411E+00  9.55249411E+00
 -1.91049882E+01  0.00000000E+00  9.55249411E+00  9.55249411E+00 -1.91049882E+01
  0.00000000E+00  9.55249411E+00  9.55249411E+00 -1.91049882E+01  0.00000000E+00
  9.55249411E+00  9.55249411E+00 -1.91049882E+01  0.00000000E+00  9.55249411E+00
  9.55249411E+00 -1.91049882E+01  0.00000000E+00  9.55249411E+00  9.55249411E+00
 -1.91049882E+01  0.00000000E+00  9.55249411E+00  9.55249411E+00 -1.91049882E+01
  0.00000000E+00  9.55249411E+00  9.55249411E+00 -1.91049882E+01  0.00000000E+00
  9.55249411E+00  9.55249411E+00 -1.91049882E+01  0.00000000E+00  9.55249411E+00
  9.55249411E+00 -1.91049882E+01  0.00000000E+00  9.55249411E+00  9.55249411E+00
 -1.91049882E+01  0.00000000E+00  9.55249411E+00  9.55249411E+00 -1.91049882E+01
  0.00000000E+00  9.55249411E+00  9.55249411E+00 -1.91049882E+01  0.00000000E+00
  9.55249411E+00  9.55249411E+00 -1.91049882E+01  0.00000000E+00  9.55249411E+00
  9.55249411E+00 -1.91049882E+01  0.00000000E+00  9.55249411E+00  9.55249411E+00
 -1.91049882E+01  0.00000000E+00  9.55249411E+00  9.55249411E+00 -1.91049882E+01
  0.00000000E+00  9.55249411E+00  9.55249411E+00 -1.91049882E+01  0.00000000E+00
  9.55249411E+00  9.55249411E+00 -1.91049882E+01  0.00000000E+00  9.55249411E+00
  9.55249411E+00 -1.91049882E+01  0.00000000E+00  9.55249411E+00  9.55249411E+00
 -1.91049882E+01  0.00000000E+00  9.55249411E+00  9.55249411E+00 -1.91049882E+01
  0.00000000E+00  9.55249411E+00  9.55249411E+00 -1.91049882E+01  0.00000000E+00
  9.55249411E+00  9.55249411E+00 -1.91049882E+01  0.00000000E+00  9.55249411E+00
  9.55249411E+00 -1.91049882E+01  0.00000000E+00  9.55249411E+00  9.55249411E+00
 -1.91049882E+01  0.00000000E+00  9.55249411E+00  9.55249411E+00 -1.91049882E+01
  0.00000000E+00  9.55249411E+00  9.55249411E+00 -1.91049882E+01  0.00000000E+00
  9.55249411E+00  9.55249411E+00 -1.91049882E+01  0.00000000E+00  9.55249411E+00
  9.55249411E+00 -1.91049882E+01  0.00000000E+00  9.55249411E+00  9.55249411E+00
 -1.91049882E+01  0.00000000E+00  9.55249411E+00  9.55249411E+00 -1.91049882E+01
  0.00000000E+00  9.55249411E+00  9.55249411E+00 -1.91049882E+01  0.00000000E+00
  9.55249411E+00  9.55249411E+00 -1.91049882E+01  0.00000000E+00  9.55249411E+00
  9.55249411E+00 -1.91049882E+01  0.00000000E+00  9.55249411E+00  9.55249411E+00
 -1.91049882E+01  0.00000000E+00  9.55249411E+00  9.55249411E+00 -1.91049882E+01
  0.00000000E+00  9.55249411E+00  9.55249411E+00 -1.91049882E+01  0.00000000E+00
  9.55249411E+00  9.55249411E+00 -1.91049882E+01  0.00000000E+00  9.55249411E+00
  9.55249411E+00 -1.91049882E+01  0.00000000E+00  9.55249411E+00  9.55249411E+00
 -1.91049882E+01  0.00000000E+00  9.55249411E+00  9.55249411E+00 -1.91049882E+01
  0.00000000E+00  9.55249411E+00  9.55249411E+00 -1.91049882E+01  0.00000000E+00
  9.55249411E+00  9.55249411E+00 -1.91049882E+01  0.00000000E+00  9.55249411E+00
  9.55249411E+00 -1.91049882E+01  0.00000000E+00  9.55249411E+00  9.55249411E+00
 -1.91049882E+01  0.00000000E+00  9.55249411E+00  9.55249411E+00 -1.91049882E+01
  0.00000000E+00  9.55249411E+00  9.55249411E+00 -1.91049882E+01  0.00000000E+00
  9.55249411E+00  9.55249411E+00 -1.91049882E+01  0.00000000E+00  9.55249411E+00
  9.55249411E+00 -1.91049882E+01  0.00000000E+00  9.55249411E+00  9.55249411E+00
 -1.91049882E+01  0.00000000E+00  9.55249411E+00  9.55249411E+00 -1.91049882E+01
  0.00000000E+00  9.55249411E+00  9.55249411E+00 -1.91049882E+01  0.00000000E+00
  9.55249411E+00  9.55249411E+00 -1.91049882E+01  0.00000000E+00  9.55249411E+00
  9.55249411E+00 -1.91049882E+01  0.00000000E+00  9.55249411E+00  9.55249411E+00
 -1.91049882E+01  0.00000000E+00  9.55249411E+00  9.55249411E+00 -1.91049882E+01
  0.00000000E+00  9.55249411E+00  9.55249411E+00 -1.91049882E+01  0.00000000E+00
  9.55249411E+00  9.55249411E+00 -1.91049882E+01  0.00000000E+00  9.55249411E+00
  9.55249411E+00 -1.91049882E+01  0.00000000E+00  9.55249411E+00  9.55249411E+00
 -1.91049882E+01  0.00000000E+00  9.55249411E+00  9.55249411E+00 -1.91049882E+01
  0.00000000E+00  9.55249411E+00  9.55249411E+00 -1.91049882E+01  0.00000000E+00
  9.55249411E+00  9.55249411E+00 -1.91049882E+01  0.00000000E+00  9.55249411E+00
  9.55249411E+00 -1.91049882E+01  0.00000000E+00  9.55249411E+00  9.55249411E+00
 -1.91049882E+01  0.00000000E+00  9.55249411E+00  9.55249411E+00 -1.91049882E+01
  0.00000000E+00  9.55249411E+00  9.55249411E+00 -1.91049882E+01  0.00000000E+00
  9.55249411E+00  9.55249411E+00 -1.91049882E+01  0.00000000E+00  9.55249411E+00
  9.55249411E+00 -1.91049882E+01  0.00000000E+00  9.55249411E+00  9.55249411E+00
 -1.91049882E+01  0.00000000E+00  9.55249411E+00  9.55249411E+00 -1.91049882E+01
  0.00000000E+00  9.55249411E+00  9.55249411E+00 -1.91049882E+01  0.00000000E+00
  9.55249411E+00  9.55249411E+00 -1.91049882E+01  0.00000000E+00  9.55249411E+00
  9.55249411E+00 -1.91049882E+01  0.00000000E+00  9.55249411E+00  9.55249411E+00
 -1.91049882E+01  0.00000000E+00  9.55249411E+00  9.55249411E+00 -1.91049882E+01
  0.00000000E+00  9.55249411E+00  9.55249411E+00 -1.91049882E+01  0.00000000E+00
  9.55249411E+00  9.55249411E+00 -1.91049882E+01  0.00000000E+00  9.55249411E+00
  9.55249411E+00 -1.91049882E+01  0.00000000E+00  9.55249411E+00  9.55249411E+00
 -1.91049882E+01  0.00000000E+00  9.55249411E+00  9.55249411E+00 -1.91049882E+01
  0.00000000E+00  9.55249411E+00  9.55249411E+00 -1.91049882E+01  0.00000000E+00
  9.55249411E+00  9.55249411E+00 -1.91049882E+01  0.00000000E+00  9.55249411E+00
  9.55249411E+00 -1.91049882E+01  0.00000000E+00  9.55249411E+00  9.55249411E+00
 -1.91049882E+01  0.00000000E+00  9.55249411E+00  9.55249411E+00 -1.91049882E+01
  0.00000000E+00  9.55249411E+00  9.55249411E+00 -1.91049882E+01  0.00000000E+00
  9.55249411E+00  9.55249411E+00 -1.91049882E+01  0.00000000E+00  9.55249411E+00
  9.55249411E+00 -1.91049882E+01  0.00000000E+00  9.55249411E+00  9.55249411E+00
 -1.91049882E+01  0.00000000E+00  9.55249411E+00  9.55249411E+00 -1.91049882E+01
  0.00000000E+00  9.55249411E+00  9.55249411E+00 -1.91049882E+01  0.00000000E+00
  9.55249411E+00  9.55249411E+00 -1.91049882E+01  0.00000000E+00  9.55249411E+00
  9.55249411E+00 -1.91049882E+01  0.00000000E+00  9.55249411E+00  9.55249411E+00
 -1.91049882E+01  0.00000000E+00  9.55249411E+00  9.55249411E+00 -1.91049882E+01
  0.00000000E+00  9.55249411E+00  9.55249411E+00 -1.91049882E+01  0.00000000E+00
  9.55249411E+00  9.55249411E+00 -1.91049882E+01  0.00000000E+00  9.55249411E+00
  9.55249411E+00 -1.91049882E+01  0.00000000E+00  9.55249411E+00  9.55249411E+00
 -1.91049882E+01  0.00000000E+00  9.55249411E+00  9.55249411E+00 -1.91049882E+01
  0.00000000E+00  9.55249411E+00  9.55249411E+00 -1.91049882E+01  0.00000000E+00
  9.55249411E+00  9.55249411E+00 -1.91049882E+01  0.00000000E+00  9.55249411E+00
  9.55249411E+00 -1.91049882E+01  0.00000000E+00  9.55249411E+00  9.55249411E+00
 -1.91049882E+01  0.00000000E+00  9.55249411E+00  9.55249411E+00 -1.91049882E+01
  0.00000000E+00  9.55249411E+00  9.55249411E+00 -1.91049882E+01  0.00000000E+00
  9.55249411E+00  9.55249411E+00 -1.91049882E+01  0.00000000E+00  9.55249411E+00
  9.55249411E+00 -1.91049882E+01  0.00000000E+00  9.55249411E+00  9.55249411E+00
 -1.91049882E+01  0.00000000E+00  9.55249411E+00  9.55249411E+00 -1.91049882E+01
  0.00000000E+00  9.55249411E+00  9.55249411E+00 -1.91049882E+01  0.00000000E+00
  9.55249411E+00  9.55249411E+00 -1.91049882E+01  0.00000000E+00  9.55249411E+00
  9.55249411E+00 -1.91049882E+01  0.00000000E+00  9.55249411E+00  9.55249411E+00
 -1.91049882E+01  0.00000000E+00  9.55249411E+00  9.55249411E+00 -1.91049882E+01
  0.00000000E+00  9.55249411E+00  9.55249411E+00 -1.91049882E+01  0.00000000E+00
  9.55249411E+00  9.55249411E+00 -1.91049882E+01  0.00000000E+00  9.55249411E+00
  9.55249411E+00 -1.91049882E+01  0.00000000E+00  9.55249411E+00  9.55249411E+00
 -1.91049882E+01  0.00000000E+00  9.55249411E+00  9.55249411E+00 -1.91049882E+01
  0.00000000E+00  9.55249411E+00  9.55249411E+00 -1.91049882E+01  0.00000000E+00
  9.55249411E+00  9.55249411E+00 -1.91049882E+01  0.00000000E+00  9.55249411E+00
  9.55249411E+00 -1.91049882E+01  0.00000000E+00  9.55249411E+00  9.55249411E+00
 -1.91049882E+01  0.00000000E+00  9.55249411E+00  9.55249411E+00 -1.91049882E+01
  0.00000000E+00  9.55249411E+00  9.55249411E+00 -1.91049882E+01  0.00000000E+00
  9.55249411E+00  9.55249411E+00 -1.91049882E+01  0.00000000E+00  9.55249411E+00
  9.55249411E+00 -1.91049882E+01  0.00000000E+00  9.55249411E+00  9.55249411E+00
 -1.91049882E+01  0.00000000E+00  9.55249411E+00  9.55249411E+00 -1.91049882E+01
  0.00000000E+00  9.55249411E+00  9.55249411E+00 -1.91049882E+01  0.00000000E+00
  9.55249411E+00  9.55249411E+00 -1.91049882E+01  0.00000000E+00  9.55249411E+00
  9.55249411E+00 -1.91049882E+01  0.00000000E+00  9.55249411E+00  9.55249411E+00
 -1.91049882E+01  0.00000000E+00  9.55249411E+00  9.55249411E+00 -1.91049882E+01
  0.00000000E+00  9.55249411E+00  9.55249411E+00 -1.91049882E+01  0.00000000E+00
  9.55249411E+00  9.55249411E+00 -1.91049882E+01  0.00000000E+00  9.55249411E+00
  9.55249411E+00 -1.91049882E+01  0.00000000E+00  9.55249411E+00  9.55249411E+00
 -1.91049882E+01  0.00000000E+00  9.55249411E+00  9.55249411E+00 -1.91049882E+01
  0.00000000E+00  9.55249411E+00  9.55249411E+00 -1.91049882E+01  0.00000000E+00
  9.55249411E+00  9.55249411E+00 -1.91049882E+01  0.00000000E+00  9.55249411E+00
  9.55249411E+00 -1.91049882E+01  0.00000000E+00  9.55249411E+00  9.55249411E+00
 -1.91049882E+01  0.00000000E+00  9.55249411E+00  9.55249411E+00 -1.91049882E+01
  0.00000000E+00  9.55249411E+00  9.55249411E+00 -1.91049882E+01  0.00000000E+00
  9.55249411E+00  9.55249411E+00 -1.91049882E+01  0.00000000E+00  9.55249411E+00
  9.55249411E+00 -1.91049882E+01  0.00000000E+00  9.55249411E+00  9.55249411E+00
 -1.91049882E+01  0.00000000E+00  9.55249411E+00  9.55249411E+00 -1.91049882E+01
  0.00000000E+00  9.55249411E+00  9.55249411E+00 -1.91049882E+01  0.00000000E+00
  9.55249411E+00  9.55249411E+00 -1.91049882E+01  0.00000000E+00  9.55249411E+00
  9.55249411E+00 -1.91049882E+01  0.00000000E+00  9.55249411E+00  9.55249411E+00
 -1.91049882E+01  0.00000000E+00  9.55249411E+00  9.55249411E+00 -1.91049882E+01
  0.00000000E+00  9.55249411E+00  9.55249411E+00 -1.91049882E+01  0.00000000E+00
  9.55249411E+00  9.55249411E+00 -1.91049882E+01  0.00000000E+00  9.55249411E+00
  9.55249411E+00 -1.91049882E+01  0.00000000E+00  9.55249411E+00  9.55249411E+00
 -1.91049882E+01  0.00000000E+00  9.55249411E+00  9.55249411E+00 -1.91049882E+01
  0.00000000E+00  9.55249411E+00  9.55249411E+00 -1.91049882E+01  0.00000000E+00
  9.55249411E+00  9.55249411E+00 -1.91049882E+01  0.00000000E+00  9.55249411E+00
  9.55249411E+00 -1.91049882E+01  0.00000000E+00  9.55249411E+00  9.55249411E+00
 -1.91049882E+01  0.00000000E+00  9.55249411E+00  9.55249411E+00 -1.91049882E+01
  0.00000000E+00  9.55249411E+00  9.55249411E+00 -1.91049882E+01  0.00000000E+00
  9.55249411E+00  9.55249411E+00 -1.91049882E+01  0.00000000E+00  9.55249411E+00
  9.55249411E+00 -1.91049882E+01  0.00000000E+00  9.55249411E+00  9.55249411E+00
 -1.91049882E+01  0.00000000E+00  9.55249411E+00  9.55249411E+00 -1.91049882E+01
  0.00000000E+00  9.55249411E+00  9.55249411E+00 -1.91049882E+01  0.00000000E+00
  9.55249411E+00  9.55249411E+00 -1.91049882E+01  0.00000000E+00  9.55249411E+00
  9.55249411E+00 -1.91049882E+01  0.00000000E+00  9.55249411E+00  9.55249411E+00
 -1.91049882E+01  0.00000000E+00  9.55249411E+00  9.55249411E+00 -1.91049882E+01
  0.00000000E+00  9.55249411E+00  9.55249411E+00 -1.91049882E+01  0.00000000E+00
  9.55249411E+00  9.55249411E+00 -1.91049882E+01  0.00000000E+00  9.55249411E+00
  9.55249411E+00 -1.91049882E+01  0.00000000E+00  9.55249411E+00  9.55249411E+00
 -1.91049882E+01  0.00000000E+00  9.55249411E+00  9.55249411E+00 -1.91049882E+01
  0.00000000E+00  9.55249411E+00  9.55249411E+00 -1.91049882E+01  0.00000000E+00
  9.55249411E+00  9.55249411E+00 -1.91049882E+01  0.00000000E+00  9.55249411E+00
  9.55249411E+00 -1.91049882E+01  0.00000000E+00  9.55249411E+00  9.55249411E+00
 -1.91049882E+01  0.00000000E+00  9.55249411E+00  9.55249411E+00 -1.91049882E+01
  0.00000000E+00  9.55249411E+00  9.55249411E+00 -1.91049882E+01  0.00000000E+00
  9.55249411E+00  9.55249411E+00 -1.91049882E+01  0.00000000E+00  9.55249411E+00
  9.55249411E+00 -1.91049882E+01  0.00000000E+00  9.55249411E+00  9.55249411E+00
 -1.91049882E+01  0.00000000E+00  9.55249411E+00  9.55249411E+00 -1.91049882E+01
  0.00000000E+00  9.55249411E+00  9.55249411E+00 -1.91049882E+01  0.00000000E+00
  9.55249411E+00  9.55249411E+00 -1.91049882E+01  0.00000000E+00  9.55249411E+00
  9.55249411E+00 -1.91049882E+01  0.00000000E+00  9.55249411E+00  9.55249411E+00
 -1.91049882E+01  0.00000000E+00  9.55249411E+00  9.55249411E+00 -1.91049882E+01
  0.00000000E+00  9.55249411E+00  9.55249411E+00 -1.91049882E+01  0.00000000E+00
  9.55249411E+00  9.55249411E+00 -1.91049882E+01  0.00000000E+00  9.55249411E+00
  9.55249411E+00 -1.91049882E+01  0.00000000E+00  9.55249411E+00  9.55249411E+00
 -1.91049882E+01  0.00000000E+00  9.55249411E+00  9.55249411E+00 -1.91049882E+01
  0.00000000E+00  9.55249411E+00  9.55249411E+00 -1.91049882E+01  0.00000000E+00
  9.55249411E+00  9.55249411E+00 -1.91049882E+01  0.00000000E+00  9.55249411E+00
  9.55249411E+00 -1.91049882E+01  0.00000000E+00  9.55249411E+00  9.55249411E+00
 -1.91049882E+01  0.00000000E+00  9.55249411E+00  9.55249411E+00 -1.91049882E+01
  0.00000000E+00  9.55249411E+00  9.55249411E+00 -1.91049882E+01  0.00000000E+00
  9.55249411E+00  9.55249411E+00 -1.91049882E+01  0.00000000E+00  9.55249411E+00
  9.55249411E+00 -1.91049882E+01  0.00000000E+00  9.55249411E+00  9.55249411E+00
 -1.91049882E+01  0.00000000E+00  9.55249411E+00  9.55249411E+00 -1.91049882E+01
  0.00000000E+00  9.55249411E+00  9.55249411E+00 -1.91049882E+01  0.00000000E+00
  9.55249411E+00  9.55249411E+00 -1.91049882E+01  0.00000000E+00  9.55249411E+00
  9.55249411E+00 -1.91049882E+01  0.00000000E+00  9.55249411E+00  9.55249411E+00
 -1.91049882E+01  0.00000000E+00  9.55249411E+00  9.55249411E+00 -1.91049882E+01
  0.00000000E+00  9.55249411E+00  9.55249411E+00 -1.91049882E+01  0.00000000E+00
  9.55249411E+00  9.55249411E+00 -1.91049882E+01  0.00000000E+00  9.55249411E+00
  9.55249411E+00 -1.91049882E+01  0.00000000E+00  9.55249411E+00  9.55249411E+00
 -1.91049882E+01  0.00000000E+00  9.55249411E+00  9.55249411E+00 -1.91049882E+01
  0.00000000E+00  9.55249411E+00  9.55249411E+00 -1.91049882E+01  0.00000000E+00
  9.55249411E+00  9.55249411E+00 -1.91049882E+01  0.00000000E+00  9.55249411E+00
  9.55249411E+00 -1.91049882E+01  0.00000000E+00  9.55249411E+00  9.55249411E+00
 -1.91049882E+01  0.00000000E+00  9.55249411E+00  9.55249411E+00 -1.91049882E+01
  0.00000000E+00  9.55249411E+00  9.55249411E+00 -1.91049882E+01  0.00000000E+00
  9.55249411E+00  9.55249411E+00 -1.91049882E+01  0.00000000E+00  9.55249411E+00
  9.55249411E+00 -1.91049882E+01  0.00000000E+00  9.55249411E+00  9.55249411E+00
 -1.91049882E+01  0.00000000E+00  9.55249411E+00  9.55249411E+00 -1.91049882E+01
  0.00000000E+00  9.55249411E+00  9.55249411E+00 -1.91049882E+01  0.00000000E+00
  9.55249411E+00  9.55249411E+00 -1.91049882E+01  0.00000000E+00  9.55249411E+00
  9.55249411E+00 -1.91049882E+01  0.00000000E+00  9.55249411E+00  9.55249411E+00
 -1.91049882E+01  0.00000000E+00  9.55249411E+00  9.55249411E+00 -1.91049882E+01
  0.00000000E+00  9.55249411E+00  9.55249411E+00 -1.91049882E+01  0.00000000E+00
  9.55249411E+00  9.55249411E+00 -1.91049882E+01  0.00000000E+00  9.55249411E+00
  9.55249411E+00 -1.91049882E+01  0.00000000E+00  9.55249411E+00  9.55249411E+00
 -1.91049882E+01  0.00000000E+00  9.55249411E+00  9.55249411E+00 -1.91049882E+01
  0.00000000E+00  9.55249411E+00  9.55249411E+00 -1.91049882E+01  0.00000000E+00
  9.55249411E+00  9.55249411E+00 -1.91049882E+01  0.00000000E+00  9.55249411E+00
  9.55249411E+00 -1.91049882E+01  0.00000000E+00  9.55249411E+00  9.55249411E+00
 -1.91049882E+01  0.00000000E+00  9.55249411E+00  9.55249411E+00 -1.91049882E+01
  0.00000000E+00  9.55249411E+00  9.55249411E+00 -1.91049882E+01  0.00000000E+00
  9.55249411E+00  9.55249411E+00 -1.91049882E+01  0.00000000E+00  9.55249411E+00
  9.55249411E+00 -1.91049882E+01  0.00000000E+00  9.55249411E+00  9.55249411E+00
 -1.91049882E+01  0.00000000E+00  9.55249411E+00  9.55249411E+00 -1.91049882E+01
  0.00000000E+00  9.55249411E+00  9.55249411E+00 -1.91049882E+01  0.00000000E+00
  9.55249411E+00  9.55249411E+00 -1.91049882E+01  0.00000000E+00  9.55249411E+00
  9.55249411E+00 -1.91049882E+01  0.00000000E+00  9.55249411E+00  9.55249411E+00
 -1.91049882E+01  0.00000000E+00  9.55249411E+00  9.55249411E+00 -1.91049882E+01
  0.00000000E+00  9.55249411E+00  9.55249411E+00 -1.91049882E+01  0.00000000E+00
  9.55249411E+00  9.55249411E+00 -1.91049882E+01  0.00000000E+00  9.55249411E+00
  9.55249411E+00 -1.91049882E+01  0.00000000E+00  9.55249411E+00  9.55249411E+00
 -1.91049882E+01  0.00000000E+00  9.55249411E+00  9.55249411E+00 -1.91049882E+01
  0.00000000E+00  9.55249411E+00  9.55249411E+00 -1.91049882E+01  0.00000000E+00
  9.55249411E+00  9.55249411E+00 -1.91049882E+01  0.00000000E+00  9.55249411E+00
  9.55249411E+00 -1.91049882E+01  0.00000000E+00  9.55249411E+00  9.55249411E+00
 -1.91049882E+01  0.00000000E+00  9.55249411E+00  9.55249411E+00 -1.91049882E+01
  0.00000000E+00  9.55249411E+00  9.55249411E+00 -1.91049882E+01  0.00000000E+00
  9.55249411E+00  9.55249411E+00 -1.91049882E+01  0.00000000E+00  9.55249411E+00
  9.55249411E+00 -1.91049882E+01  0.00000000E+00  9.55249411E+00  9.55249411E+00
 -1.91049882E+01  0.00000000E+00  9.55249411E+00  9.55249411E+00 -1.91049882E+01
  0.00000000E+00  9.55249411E+00  9.55249411E+00 -1.91049882E+01  0.00000000E+00
  9.55249411E+00  9.55249411E+00 -1.91049882E+01  0.00000000E+00  9.55249411E+00
  9.55249411E+00 -1.91049882E+01  0.00000000E+00  9.55249411E+00  9.55249411E+00
 -1.91049882E+01  0.00000000E+00  9.55249411E+00  9.55249411E+00 -1.91049882E+01
  0.00000000E+00  9.55249411E+00  9.55249411E+00 -1.91049882E+01  0.00000000E+00
  9.55249411E+00  9.55249411E+00 -1.91049882E+01  0.00000000E+00  9.55249411E+00
  9.55249411E+00 -1.91049882E+01  0.00000000E+00  9.55249411E+00  9.55249411E+00
 -1.91049882E+01  0.00000000E+00  9.55249411E+00  9.55249411E+00 -1.91049882E+01
  0.00000000E+00  9.55249411E+00  9.55249411E+00 -1.91049882E+01  0.00000000E+00
  9.55249411E+00  9.55249411E+00 -1.91049882E+01  0.00000000E+00  9.55249411E+00
  9.55249411E+00 -1.91049882E+01  0.00000000E+00  9.55249411E+00  9.55249411E+00
 -1.91049882E+01  0.00000000E+00  9.55249411E+00  9.55249411E+00 -1.91049882E+01
  0.00000000E+00  9.55249411E+00  9.55249411E+00 -1.91049882E+01  0.00000000E+00
  9.55249411E+00  9.55249411E+00 -1.91049882E+01  0.00000000E+00  9.55249411E+00
  9.55249411E+00 -1.91049882E+01  0.00000000E+00  9.55249411E+00  9.55249411E+00
 -1.91049882E+01  0.00000000E+00  9.55249411E+00  9.55249411E+00 -1.91049882E+01
  0.00000000E+00  9.55249411E+00  9.55249411E+00 -1.91049882E+01  0.00000000E+00
  9.55249411E+00  9.55249411E+00 -1.91049882E+01  0.00000000E+00  9.55249411E+00
  9.55249411E+00 -1.91049882E+01  0.00000000E+00  9.55249411E+00  9.55249411E+00
 -1.91049882E+01  0.00000000E+00  9.55249411E+00  9.55249411E+00 -1.91049882E+01
  0.00000000E+00  9.55249411E+00  9.55249411E+00 -1.91049882E+01  0.00000000E+00
  9.55249411E+00  9.55249411E+00 -1.91049882E+01  0.00000000E+00  9.55249411E+00
  9.55249411E+00 -1.91049882E+01  0.00000000E+00  9.55249411E+00  9.55249411E+00
 -1.91049882E+01  0.00000000E+00  9.55249411E+00  9.55249411E+00 -1.91049882E+01
  0.00000000E+00  9.55249411E+00  9.55249411E+00 -1.91049882E+01  0.00000000E+00
  9.55249411E+00  9.55249411E+00 -1.91049882E+01  0.00000000E+00  9.55249411E+00
  9.55249411E+00 -1.91049882E+01  0.00000000E+00  9.55249411E+00  9.55249411E+00
 -1.91049882E+01  0.00000000E+00  9.55249411E+00  9.55249411E+00 -1.91049882E+01
  0.00000000E+00  9.55249411E+00  9.55249411E+00 -1.91049882E+01  0.00000000E+00
  9.55249411E+00  9.55249411E+00 -1.91049882E+01  0.00000000E+00  9.55249411E+00
  9.55249411E+00 -1.91049882E+01  0.00000000E+00  9.55249411E+00  9.55249411E+00
 -1.91049882E+01  0.00000000E+00  9.55249411E+00  9.55249411E+00 -1.91049882E+01
  0.00000000E+00  9.55249411E+00  9.55249411E+00 -1.91049882E+01  0.00000000E+00
  9.55249411E+00  9.55249411E+00 -1.91049882E+01  0.00000000E+00  9.55249411E+00
  9.55249411E+00 -1.91049882E+01  0.00000000E+00  9.55249411E+00  9.55249411E+00
 -1.91049882E+01  0.00000000E+00  9.55249411E+00  9.55249411E+00 -1.91049882E+01
  0.00000000E+00  9.55249411E+00  9.55249411E+00 -1.91049882E+01  0.00000000E+00
  9.55249411E+00  9.55249411E+00 -1.91049882E+01  0.00000000E+00  9.55249411E+00
  9.55249411E+00 -1.91049882E+01  0.00000000E+00  9.55249411E+00  9.55249411E+00
 -1.91049882E+01  0.00000000E+00  9.55249411E+00  9.55249411E+00 -1.91049882E+01
  0.00000000E+00  9.55249411E+00  9.55249411E+00 -1.91049882E+01  0.00000000E+00
  9.55249411E+00  9.55249411E+00 -1.91049882E+01  0.00000000E+00  9.55249411E+00
  9.55249411E+00 -1.91049882E+01  0.00000000E+00  9.55249411E+00  9.55249411E+00
 -1.91049882E+01  0.00000000E+00  9.55249411E+00  9.55249411E+00 -1.91049882E+01
  0.00000000E+00  9.55249411E+00  9.55249411E+00 -1.91049882E+01  0.00000000E+00
  9.55249411E+00  9.55249411E+00 -1.91049882E+01  0.00000000E+00  9.55249411E+00
  9.55249411E+00 -1.91049882E+01  0.00000000E+00  9.55249411E+00  9.55249411E+00
 -1.91049882E+01  0.00000000E+00  9.55249411E+00  9.55249411E+00 -1.91049882E+01
  0.00000000E+00  9.55249411E+00  9.55249411E+00 -1.91049882E+01  0.00000000E+00
  9.55249411E+00  9.55249411E+00 -1.91049882E+01  0.00000000E+00  9.55249411E+00
  9.55249411E+00 -1.91049882E+01  0.00000000E+00  9.55249411E+00  9.55249411E+00
 -1.91049882E+01  0.00000000E+00  9.55249411E+00  9.55249411E+00 -1.91049882E+01
  0.00000000E+00  9.55249411E+00  9.55249411E+00 -1.91049882E+01  0.00000000E+00
  9.55249411E+00  9.55249411E+00 -1.91049882E+01  0.00000000E+00  9.55249411E+00
  9.55249411E+00 -1.91049882E+01  0.00000000E+00  9.55249411E+00  9.55249411E+00
 -1.91049882E+01  0.00000000E+00  9.55249411E+00  9.55249411E+00 -1.91049882E+01
  0.00000000E+00  9.55249411E+00  9.55249411E+00 -1.91049882E+01  0.00000000E+00
  9.55249411E+00  9.55249411E+00 -1.91049882E+01  0.00000000E+00  9.55249411E+00
  9.55249411E+00 -1.91049882E+01  0.00000000E+00  9.55249411E+00  9.55249411E+00
 -1.91049882E+01  0.00000000E+00  9.55249411E+00  9.55249411E+00 -1.91049882E+01
  0.00000000E+00  9.55249411E+00  9.55249411E+00 -1.91049882E+01  0.00000000E+00
  9.55249411E+00  9.55249411E+00 -1.91049882E+01  0.00000000E+00  9.55249411E+00
  9.55249411E+00 -1.91049882E+01  0.00000000E+00  9.55249411E+00  9.55249411E+00
 -1.91049882E+01  0.00000000E+00  9.55249411E+00  9.55249411E+00 -1.91049882E+01
  0.00000000E+00  9.55249411E+00  9.55249411E+00 -1.91049882E+01  0.00000000E+00
  9.55249411E+00  9.55249411E+00 -1.91049882E+01  0.00000000E+00  9.55249411E+00
  9.55249411E+00 -1.91049882E+01  0.00000000E+00  9.55249411E+00  9.55249411E+00
 -1.91049882E+01  0.00000000E+00  9.55249411E+00  9.55249411E+00 -1.91049882E+01
  0.00000000E+00  9.55249411E+00  9.55249411E+00 -1.91049882E+01  0.00000000E+00
  9.55249411E+00  9.55249411E+00 -1.91049882E+01  0.00000000E+00  9.55249411E+00
  9.55249411E+00 -1.91049882E+01  0.00000000E+00  9.55249411E+00  9.55249411E+00
 -1.91049882E+01  0.00000000E+00  9.55249411E+00  9.55249411E+00 -1.91049882E+01
  0.00000000E+00  9.55249411E+00  9.55249411E+00 -1.91049882E+01  0.00000000E+00
  9.55249411E+00  9.55249411E+00 -1.91049882E+01  0.00000000E+00  9.55249411E+00
  9.55249411E+00 -1.91049882E+01  0.00000000E+00  9.55249411E+00  9.55249411E+00
 -1.91049882E+01  0.00000000E+00  9.55249411E+00  9.55249411E+00 -1.91049882E+01
  0.00000000E+00  9.55249411E+00  9.55249411E+00 -1.91049882E+01  0.00000000E+00
  9.55249411E+00  9.55249411E+00 -1.91049882E+01  0.00000000E+00  9.55249411E+00
  9.55249411E+00 -1.91049882E+01  0.00000000E+00  9.55249411E+00  9.55249411E+00
 -1.91049882E+01  0.00000000E+00  9.55249411E+00  9.55249411E+00 -1.91049882E+01
  0.00000000E+00  9.55249411E+00  9.55249411E+00 -1.91049882E+01  0.00000000E+00
  9.55249411E+00  9.55249411E+00 -1.91049882E+01  0.00000000E+00  9.55249411E+00
  9.55249411E+00 -1.91049882E+01  0.00000000E+00  9.55249411E+00  9.55249411E+00
 -1.91049882E+01  0.00000000E+00  9.55249411E+00  9.55249411E+00 -1.91049882E+01
  0.00000000E+00  9.55249411E+00  9.55249411E+00 -1.91049882E+01  0.00000000E+00
  9.55249411E+00  9.55249411E+00 -1.91049882E+01  0.00000000E+00  9.55249411E+00
  9.55249411E+00 -1.91049882E+01  0.00000000E+00  9.55249411E+00  9.55249411E+00
 -1.91049882E+01  0.00000000E+00  9.55249411E+00  9.55249411E+00 -1.91049882E+01
  0.00000000E+00  9.55249411E+00  9.55249411E+00 -1.91049882E+01  0.00000000E+00
  9.55249411E+00  9.55249411E+00 -1.91049882E+01  0.00000000E+00  9.55249411E+00
  9.55249411E+00 -1.91049882E+01  0.00000000E+00  9.55249411E+00  9.55249411E+00
 -1.91049882E+01  0.00000000E+00  9.55249411E+00  9.55249411E+00 -1.91049882E+01
  0.00000000E+00  9.55249411E+00  9.55249411E+00 -1.91049882E+01  0.00000000E+00
  9.55249411E+00  9.55249411E+00 -1.91049882E+01  0.00000000E+00  9.55249411E+00
  9.55249411E+00 -1.91049882E+01  0.00000000E+00  9.55249411E+00  9.55249411E+00
 -1.91049882E+01  0.00000000E+00  9.55249411E+00  9.55249411E+00 -1.91049882E+01
  0.00000000E+00  9.55249411E+00  9.55249411E+00 -1.91049882E+01  0.00000000E+00
  9.55249411E+00  9.55249411E+00 -1.91049882E+01  0.00000000E+00  9.55249411E+00
  9.55249411E+00 -1.91049882E+01  0.00000000E+00  9.55249411E+00  9.55249411E+00
 -1.91049882E+01  0.00000000E+00  9.55249411E+00  9.55249411E+00 -1.91049882E+01
  0.00000000E+00  9.55249411E+00  9.55249411E+00 -1.91049882E+01  0.00000000E+00
  9.55249411E+00  9.55249411E+00 -1.91049882E+01  0.00000000E+00  9.55249411E+00
  9.55249411E+00 -1.91049882E+01  0.00000000E+00  9.55249411E+00  9.55249411E+00
 -1.91049882E+01  0.00000000E+00  9.55249411E+00  9.55249411E+00 -1.91049882E+01
  0.00000000E+00  9.55249411E+00  9.55249411E+00 -1.91049882E+01  0.00000000E+00
  9.55249411E+00  9.55249411E+00 -1.91049882E+01  0.00000000E+00  9.55249411E+00
  9.55249411E+00 -1.91049882E+01  0.00000000E+00  9.55249411E+00  9.55249411E+00
 -1.91049882E+01  0.00000000E+00  9.55249411E+00  9.55249411E+00 -1.91049882E+01
  0.00000000E+00  9.55249411E+00  9.55249411E+00 -1.91049882E+01  0.00000000E+00
  9.55249411E+00  9.55249411E+00 -1.91049882E+01  0.00000000E+00  9.55249411E+00
  9.55249411E+00 -1.91049882E+01  0.00000000E+00  9.55249411E+00  9.55249411E+00
 -1.91049882E+01  0.00000000E+00  9.55249411E+00  9.55249411E+00 -1.91049882E+01
  0.00000000E+00  9.55249411E+00  9.55249411E+00 -1.91049882E+01  0.00000000E+00
  9.55249411E+00  9.55249411E+00 -1.91049882E+01  0.00000000E+00  9.55249411E+00
  9.55249411E+00 -1.91049882E+01  0.00000000E+00  9.55249411E+00  9.55249411E+00
 -1.91049882E+01  0.00000000E+00  9.55249411E+00  9.55249411E+00 -1.91049882E+01
  0.00000000E+00  9.55249411E+00  9.55249411E+00 -1.91049882E+01  0.00000000E+00
  9.55249411E+00  9.55249411E+00 -1.91049882E+01  0.00000000E+00  9.55249411E+00
  9.55249411E+00 -1.91049882E+01  0.00000000E+00  9.55249411E+00  9.55249411E+00
 -1.91049882E+01  0.00000000E+00  9.55249411E+00  9.55249411E+00 -1.91049882E+01
  0.00000000E+00  9.55249411E+00  9.55249411E+00 -1.91049882E+01  0.00000000E+00
  9.55249411E+00  9.55249411E+00 -1.91049882E+01  0.00000000E+00  9.55249411E+00
  9.55249411E+00 -1.91049882E+01  0.00000000E+00  9.55249411E+00  9.55249411E+00
 -1.91049882E+01  0.00000000E+00  9.55249411E+00  9.55249411E+00 -1.91049882E+01
  0.00000000E+00  9.55249411E+00  9.55249411E+00 -1.91049882E+01  0.00000000E+00
  9.55249411E+00  9.55249411E+00 -1.91049882E+01  0.00000000E+00  9.55249411E+00
  9.55249411E+00 -1.91049882E+01  0.00000000E+00  9.55249411E+00  9.55249411E+00
 -1.91049882E+01  0.00000000E+00  9.55249411E+00  9.55249411E+00 -1.91049882E+01
  0.00000000E+00  9.55249411E+00  9.55249411E+00 -1.91049882E+01  0.00000000E+00
  9.55249411E+00  9.55249411E+00 -1.91049882E+01  0.00000000E+00  9.55249411E+00
  9.55249411E+00 -1.91049882E+01  0.00000000E+00  9.55249411E+00  9.55249411E+00
 -1.91049882E+01  0.00000000E+00  9.55249411E+00  9.55249411E+00 -1.91049882E+01
  0.00000000E+00  9.55249411E+00  9.55249411E+00 -1.91049882E+01  0.00000000E+00
  9.55249411E+00  9.55249411E+00 -1.91049882E+01  0.00000000E+00  9.55249411E+00
  9.55249411E+00 -1.91049882E+01  0.00000000E+00  9.55249411E+00  9.55249411E+00
 -1.91049882E+01  0.00000000E+00  9.55249411E+00  9.55249411E+00 -1.91049882E+01
  0.00000000E+00  9.55249411E+00  9.55249411E+00 -1.91049882E+01  0.00000000E+00
  9.55249411E+00  9.55249411E+00 -1.91049882E+01  0.00000000E+00  9.55249411E+00
  9.55249411E+00 -1.91049882E+01  0.00000000E+00  9.55249411E+00  9.55249411E+00
 -1.91049882E+01  0.00000000E+00  9.55249411E+00  9.55249411E+00 -1.91049882E+01
  0.00000000E+00  9.55249411E+00  9.55249411E+00 -1.91049882E+01  0.00000000E+00
  9.55249411E+00  9.55249411E+00 -1.91049882E+01  0.00000000E+00  9.55249411E+00
  9.55249411E+00 -1.91049882E+01  0.00000000E+00  9.55249411E+00  9.55249411E+00
 -1.91049882E+01  0.00000000E+00  9.55249411E+00  9.55249411E+00 -1.91049882E+01
  0.00000000E+00  9.55249411E+00  9.55249411E+00 -1.91049882E+01  0.00000000E+00
  9.55249411E+00  9.55249411E+00 -1.91049882E+01  0.00000000E+00  9.55249411E+00
  9.55249411E+00 -1.91049882E+01  0.00000000E+00  9.55249411E+00  9.55249411E+00
 -1.91049882E+01  0.00000000E+00  9.55249411E+00  9.55249411E+00 -1.91049882E+01
  0.00000000E+00  9.55249411E+00  9.55249411E+00 -1.91049882E+01  0.00000000E+00
  9.55249411E+00  9.55249411E+00 -1.91049882E+01  0.00000000E+00  9.55249411E+00
  9.55249411E+00 -1.91049882E+01  0.00000000E+00  9.55249411E+00  9.55249411E+00
 -1.91049882E+01  0.00000000E+00  9.55249411E+00  9.55249411E+00 -1.91049882E+01
  0.00000000E+00  9.55249411E+00  9.55249411E+00 -1.91049882E+01  0.00000000E+00
  9.55249411E+00  9.55249411E+00 -1.91049882E+01  0.00000000E+00  9.55249411E+00
  9.55249411E+00 -1.91049882E+01  0.00000000E+00  9.55249411E+00  9.55249411E+00
 -1.91049882E+01  0.00000000E+00  9.55249411E+00  9.55249411E+00 -1.91049882E+01
  0.00000000E+00  9.55249411E+00  9.55249411E+00 -1.91049882E+01  0.00000000E+00
  9.55249411E+00  9.55249411E+00 -1.91049882E+01  0.00000000E+00  9.55249411E+00
  9.55249411E+00 -1.91049882E+01  0.00000000E+00  9.55249411E+00  9.55249411E+00
 -1.91049882E+01  0.00000000E+00  9.55249411E+00  9.55249411E+00 -1.91049882E+01
  0.00000000E+00  9.55249411E+00  9.55249411E+00 -1.91049882E+01  0.00000000E+00
  9.55249411E+00  9.55249411E+00 -1.91049882E+01  0.00000000E+00  9.55249411E+00
  9.55249411E+00 -1.91049882E+01  0.00000000E+00  9.55249411E+00  9.55249411E+00
 -1.91049882E+01  0.00000000E+00  9.55249411E+00  9.55249411E+00 -1.91049882E+01
  0.00000000E+00  9.55249411E+00  9.55249411E+00 -1.91049882E+01  0.00000000E+00
  9.55249411E+00  9.55249411E+00 -1.91049882E+01  0.00000000E+00  9.55249411E+00
  9.55249411E+00 -1.91049882E+01  0.00000000E+00  9.55249411E+00  9.55249411E+00
 -1.91049882E+01  0.00000000E+00  9.55249411E+00  9.55249411E+00 -1.91049882E+01
  0.00000000E+00  9.55249411E+00  9.55249411E+00 -1.91049882E+01  0.00000000E+00
  9.55249411E+00  9.55249411E+00 -1.91049882E+01  0.00000000E+00  9.55249411E+00
  9.55249411E+00 -1.91049882E+01  0.00000000E+00  9.55249411E+00  9.55249411E+00
 -1.91049882E+01  0.00000000E+00  9.55249411E+00  9.55249411E+00 -1.91049882E+01
  0.00000000E+00  9.55249411E+00  9.55249411E+00 -1.91049882E+01  0.00000000E+00
  9.55249411E+00  9.55249411E+00 -1.91049882E+01  0.00000000E+00  9.55249411E+00
  9.55249411E+00 -1.91049882E+01  0.00000000E+00  9.55249411E+00  9.55249411E+00
 -1.91049882E+01  0.00000000E+00  9.55249411E+00  9.55249411E+00 -1.91049882E+01
  0.00000000E+00  9.55249411E+00  9.55249411E+00 -1.91049882E+01  0.00000000E+00
  9.55249411E+00  9.55249411E+00 -1.91049882E+01  0.00000000E+00  9.55249411E+00
  9.55249411E+00 -1.91049882E+01  0.00000000E+00  9.55249411E+00  9.55249411E+00
 -1.91049882E+01  0.00000000E+00  9.55249411E+00  9.55249411E+00 -1.91049882E+01
  0.00000000E+00  9.55249411E+00  9.55249411E+00 -1.91049882E+01  0.00000000E+00
  9.55249411E+00  9.55249411E+00 -1.91049882E+01  0.00000000E+00  9.55249411E+00
  9.55249411E+00 -1.91049882E+01  0.00000000E+00  9.55249411E+00  9.55249411E+00
 -1.91049882E+01  0.00000000E+00  9.55249411E+00  9.55249411E+00 -1.91049882E+01
  0.00000000E+00  9.55249411E+00  9.55249411E+00 -1.91049882E+01  0.00000000E+00
  9.55249411E+00  9.55249411E+00 -1.91049882E+01  0.00000000E+00  9.55249411E+00
  9.55249411E+00 -1.91049882E+01  0.00000000E+00  9.55249411E+00  9.55249411E+00
 -1.91049882E+01  0.00000000E+00  9.55249411E+00  9.55249411E+00 -1.91049882E+01
  0.00000000E+00  9.55249411E+00  9.55249411E+00 -1.91049882E+01  0.00000000E+00
  9.55249411E+00  9.55249411E+00 -1.91049882E+01  0.00000000E+00  9.55249411E+00
  9.55249411E+00 -1.91049882E+01  0.00000000E+00  9.55249411E+00  9.55249411E+00
 -1.91049882E+01  0.00000000E+00  9.55249411E+00  9.55249411E+00 -1.91049882E+01
  0.00000000E+00  9.55249411E+00  9.55249411E+00 -1.91049882E+01  0.00000000E+00
  9.55249411E+00  9.55249411E+00 -1.91049882E+01  0.00000000E+00  9.55249411E+00
  9.55249411E+00 -1.91049882E+01  0.00000000E+00  9.55249411E+00  9.55249411E+00
 -1.91049882E+01  0.00000000E+00  9.55249411E+00  9.55249411E+00 -1.91049882E+01
  0.00000000E+00  9.55249411E+00  9.55249411E+00 -1.91049882E+01  0.00000000E+00
  9.55249411E+00  9.55249411E+00 -1.91049882E+01  0.00000000E+00  9.55249411E+00
  9.55249411E+00 -1.91049882E+01  0.00000000E+00  9.55249411E+00  9.55249411E+00
 -1.91049882E+01  0.00000000E+00  9.55249411E+00  9.55249411E+00 -1.91049882E+01
  0.00000000E+00  9.55249411E+00  9.55249411E+00 -1.91049882E+01  0.00000000E+00
  9.55249411E+00  9.55249411E+00 -1.91049882E+01  0.00000000E+00  9.55249411E+00
  9.55249411E+00 -1.91049882E+01  0.00000000E+00  9.55249411E+00  9.55249411E+00
 -1.91049882E+01  0.00000000E+00  9.55249411E+00  9.55249411E+00 -1.91049882E+01
  0.00000000E+00  9.55249411E+00  9.55249411E+00 -1.91049882E+01  0.00000000E+00
  9.55249411E+00  9.55249411E+00 -1.91049882E+01  0.00000000E+00  9.55249411E+00
  9.55249411E+00 -1.91049882E+01  0.00000000E+00  9.55249411E+00  9.55249411E+00
 -1.91049882E+01  0.00000000E+00  9.55249411E+00  9.55249411E+00 -1.91049882E+01
  0.00000000E+00  9.55249411E+00  9.55249411E+00 -1.91049882E+01  0.00000000E+00
  9.55249411E+00  9.55249411E+00 -1.91049882E+01  0.00000000E+00  9.55249411E+00
  9.55249411E+00 -1.91049882E+01  0.00000000E+00  9.55249411E+00  9.55249411E+00
 -1.91049882E+01  0.00000000E+00  9.55249411E+00  9.55249411E+00 -1.91049882E+01
  0.00000000E+00  9.55249411E+00  9.55249411E+00 -1.91049882E+01  0.00000000E+00
  9.55249411E+00  9.55249411E+00 -1.91049882E+01  0.00000000E+00  9.55249411E+00
  9.55249411E+00 -1.91049882E+01  0.00000000E+00  9.55249411E+00  9.55249411E+00
 -1.91049882E+01  0.00000000E+00  9.55249411E+00  9.55249411E+00 -1.91049882E+01
  0.00000000E+00  9.55249411E+00  9.55249411E+00 -1.91049882E+01  0.00000000E+00
  9.55249411E+00  9.55249411E+00 -1.91049882E+01  0.00000000E+00  9.55249411E+00
  9.55249411E+00 -1.91049882E+01  0.00000000E+00  9.55249411E+00  9.55249411E+00
 -1.91049882E+01  0.00000000E+00  9.55249411E+00  9.55249411E+00 -1.91049882E+01
  0.00000000E+00  9.55249411E+00  9.55249411E+00 -1.91049882E+01  0.00000000E+00
  9.55249411E+00  9.55249411E+00 -1.91049882E+01  0.00000000E+00  9.55249411E+00
  9.55249411E+00 -1.91049882E+01  0.00000000E+00  9.55249411E+00  9.55249411E+00
 -1.91049882E+01  0.00000000E+00  9.55249411E+00  9.55249411E+00 -1.91049882E+01
  0.00000000E+00  9.55249411E+00  9.55249411E+00 -1.91049882E+01  0.00000000E+00
  9.55249411E+00  9.55249411E+00 -1.91049882E+01  0.00000000E+00  9.55249411E+00
  9.55249411E+00 -1.91049882E+01  0.00000000E+00  9.55249411E+00  9.55249411E+00
 -1.91049882E+01  0.00000000E+00  9.55249411E+00  9.55249411E+00 -1.91049882E+01
  0.00000000E+00  9.55249411E+00  9.55249411E+00 -1.91049882E+01  0.00000000E+00
  9.55249411E+00  9.55249411E+00 -1.91049882E+01  0.00000000E+00  9.55249411E+00
  9.55249411E+00 -1.91049882E+01  0.00000000E+00  9.55249411E+00  9.55249411E+00
 -1.91049882E+01  0.00000000E+00  9.55249411E+00  9.55249411E+00 -1.91049882E+01
  0.00000000E+00  9.55249411E+00  9.55249411E+00 -1.91049882E+01  0.00000000E+00
  9.55249411E+00  9.55249411E+00 -1.91049882E+01  0.00000000E+00  9.55249411E+00
  9.55249411E+00 -1.91049882E+01  0.00000000E+00  9.55249411E+00  9.55249411E+00
 -1.91049882E+01  0.00000000E+00  9.55249411E+00  9.55249411E+00 -1.91049882E+01
  0.00000000E+00  9.55249411E+00  9.55249411E+00 -1.91049882E+01  0.00000000E+00
  9.55249411E+00  9.55249411E+00 -1.91049882E+01  0.00000000E+00  9.55249411E+00
  9.55249411E+00 -1.91049882E+01  0.00000000E+00  9.55249411E+00  9.55249411E+00
 -1.91049882E+01  0.00000000E+00  9.55249411E+00  9.55249411E+00 -1.91049882E+01
  0.00000000E+00  9.55249411E+00  9.55249411E+00 -1.91049882E+01  0.00000000E+00
  9.55249411E+00  9.55249411E+00 -1.91049882E+01  0.00000000E+00  9.55249411E+00
  9.55249411E+00 -1.91049882E+01  0.00000000E+00  9.55249411E+00  9.55249411E+00
 -1.91049882E+01  0.00000000E+00  9.55249411E+00  9.55249411E+00 -1.91049882E+01
  0.00000000E+00  9.55249411E+00  9.55249411E+00 -1.91049882E+01  0.00000000E+00
  9.55249411E+00  9.55249411E+00 -1.91049882E+01  0.00000000E+00  9.55249411E+00
  9.55249411E+00 -1.91049882E+01  0.00000000E+00  9.55249411E+00  9.55249411E+00
 -1.91049882E+01  0.00000000E+00  9.55249411E+00  9.55249411E+00 -1.91049882E+01
  0.00000000E+00  9.55249411E+00  9.55249411E+00 -1.91049882E+01  0.00000000E+00
  9.55249411E+00  9.55249411E+00 -1.91049882E+01  0.00000000E+00  9.55249411E+00
  9.55249411E+00 -1.91049882E+01  0.00000000E+00  9.55249411E+00  9.55249411E+00
 -1.91049882E+01  0.00000000E+00  9.55249411E+00  9.55249411E+00 -1.91049882E+01
  0.00000000E+00  9.55249411E+00  9.55249411E+00 -1.91049882E+01  0.00000000E+00
  9.55249411E+00  9.55249411E+00 -1.91049882E+01  0.00000000E+00  9.55249411E+00
  9.55249411E+00 -1.91049882E+01  0.00000000E+00  9.55249411E+00  9.55249411E+00
 -1.91049882E+01  0.00000000E+00  9.55249411E+00  9.55249411E+00 -1.91049882E+01
  0.00000000E+00  9.55249411E+00  9.55249411E+00 -1.91049882E+01  0.00000000E+00
  9.55249411E+00  9.55249411E+00 -1.91049882E+01  0.00000000E+00  9.55249411E+00
  9.55249411E+00 -1.91049882E+01  0.00000000E+00  9.55249411E+00  9.55249411E+00
 -1.91049882E+01  0.00000000E+00  9.55249411E+00  9.55249411E+00 -1.91049882E+01
  0.00000000E+00  9.55249411E+00  9.55249411E+00 -1.91049882E+01  0.00000000E+00
  9.55249411E+00  9.55249411E+00 -1.91049882E+01  0.00000000E+00  9.55249411E+00
  9.55249411E+00 -1.91049882E+01  0.00000000E+00  9.55249411E+00  9.55249411E+00
 -1.91049882E+01  0.00000000E+00  9.55249411E+00  9.55249411E+00 -1.91049882E+01
  0.00000000E+00  9.55249411E+00  9.55249411E+00 -1.91049882E+01  0.00000000E+00
  9.55249411E+00  9.55249411E+00 -1.91049882E+01  0.00000000E+00  9.55249411E+00
  9.55249411E+00 -1.91049882E+01  0.00000000E+00  9.55249411E+00  9.55249411E+00
 -1.91049882E+01  0.00000000E+00  9.55249411E+00  9.55249411E+00 -1.91049882E+01
  0.00000000E+00  9.55249411E+00  9.55249411E+00 -1.91049882E+01  0.00000000E+00
  9.55249411E+00  9.55249411E+00 -1.91049882E+01  0.00000000E+00  9.55249411E+00
  9.55249411E+00 -1.91049882E+01  0.00000000E+00  9.55249411E+00  9.55249411E+00
 -1.91049882E+01  0.00000000E+00  9.55249411E+00  9.55249411E+00 -1.91049882E+01
  0.00000000E+00  9.55249411E+00  9.55249411E+00 -1.91049882E+01  0.00000000E+00
  9.55249411E+00  9.55249411E+00 -1.91049882E+01  0.00000000E+00  9.55249411E+00
  9.55249411E+00 -1.91049882E+01  0.00000000E+00  9.55249411E+00  9.55249411E+00
 -1.91049882E+01  0.00000000E+00  9.55249411E+00  9.55249411E+00 -1.91049882E+01
  0.00000000E+00  9.55249411E+00  9.55249411E+00 -1.91049882E+01  0.00000000E+00
  9.55249411E+00  9.55249411E+00 -1.91049882E+01  0.00000000E+00  9.55249411E+00
  9.55249411E+00 -1.91049882E+01  0.00000000E+00  9.55249411E+00  9.55249411E+00
 -1.91049882E+01  0.00000000E+00  9.55249411E+00  9.55249411E+00 -1.91049882E+01
  0.00000000E+00  9.55249411E+00  9.55249411E+00 -1.91049882E+01  0.00000000E+00
  9.55249411E+00  9.55249411E+00 -1.91049882E+01  0.00000000E+00  9.55249411E+00
  9.55249411E+00 -1.91049882E+01  0.00000000E+00  9.55249411E+00  9.55249411E+00
 -1.91049882E+01  0.00000000E+00  9.55249411E+00  9.55249411E+00 -1.91049882E+01
  0.00000000E+00  9.55249411E+00  9.55249411E+00 -1.91049882E+01  0.00000000E+00
  9.55249411E+00  9.55249411E+00 -1.91049882E+01  0.00000000E+00  9.55249411E+00
  9.55249411E+00 -1.91049882E+01  0.00000000E+00  9.55249411E+00  9.55249411E+00
 -1.91049882E+01  0.00000000E+00  9.55249411E+00  9.55249411E+00 -1.91049882E+01
  0.00000000E+00  9.55249411E+00  9.55249411E+00 -1.91049882E+01  0.00000000E+00
  9.55249411E+00  9.55249411E+00 -1.91049882E+01  0.00000000E+00  9.55249411E+00
  9.55249411E+00 -1.91049882E+01  0.00000000E+00  9.55249411E+00  9.55249411E+00
 -1.91049882E+01  0.00000000E+00  9.55249411E+00  9.55249411E+00 -1.91049882E+01
  0.00000000E+00  9.55249411E+00  9.55249411E+00 -1.91049882E+01  0.00000000E+00
  9.55249411E+00  9.55249411E+00 -1.91049882E+01  0.00000000E+00  9.55249411E+00
  9.55249411E+00 -1.91049882E+01  0.00000000E+00  9.55249411E+00  9.55249411E+00
 -1.91049882E+01  0.00000000E+00  9.55249411E+00  9.55249411E+00 -1.91049882E+01
  0.00000000E+00  9.55249411E+00  9.55249411E+00 -1.91049882E+01  0.00000000E+00
  9.55249411E+00  9.55249411E+00 -1.91049882E+01  0.00000000E+00  9.55249411E+00
  9.55249411E+00 -1.91049882E+01  0.00000000E+00  9.55249411E+00  9.55249411E+00
 -1.91049882E+01  0.00000000E+00  9.55249411E+00  9.55249411E+00 -1.91049882E+01
  0.00000000E+00  9.55249411E+00  9.55249411E+00 -1.91049882E+01  0.00000000E+00
  9.55249411E+00  9.55249411E+00 -1.91049882E+01  0.00000000E+00  9.55249411E+00
  9.55249411E+00 -1.91049882E+01  0.00000000E+00  9.55249411E+00  9.55249411E+00
 -1.91049882E+01  0.00000000E+00  9.55249411E+00  9.55249411E+00 -1.91049882E+01
  0.00000000E+00  9.55249411E+00  9.55249411E+00 -1.91049882E+01  0.00000000E+00
  9.55249411E+00  9.55249411E+00 -1.91049882E+01  0.00000000E+00  9.55249411E+00
  9.55249411E+00 -1.91049882E+01  0.00000000E+00  9.55249411E+00  9.55249411E+00
 -1.91049882E+01  0.00000000E+00  9.55249411E+00  9.55249411E+00 -1.91049882E+01
  0.00000000E+00  9.55249411E+00  9.55249411E+00 -1.91049882E+01  0.00000000E+00
  9.55249411E+00  9.55249411E+00 -1.91049882E+01  0.00000000E+00  9.55249411E+00
  9.55249411E+00 -1.91049882E+01  0.00000000E+00  9.55249411E+00  9.55249411E+00
 -1.91049882E+01  0.00000000E+00  9.55249411E+00  9.55249411E+00 -1.91049882E+01
  0.00000000E+00  9.55249411E+00  9.55249411E+00 -1.91049882E+01  0.00000000E+00
  9.55249411E+00  9.55249411E+00 -1.91049882E+01  0.00000000E+00  9.55249411E+00
  9.55249411E+00 -1.91049882E+01  0.00000000E+00  9.55249411E+00  9.55249411E+00
 -1.91049882E+01  0.00000000E+00  9.55249411E+00  9.55249411E+00 -1.91049882E+01
  0.00000000E+00  9.55249411E+00  9.55249411E+00 -1.91049882E+01  0.00000000E+00
  9.55249411E+00  9.55249411E+00 -1.91049882E+01  0.00000000E+00  9.55249411E+00
  9.55249411E+00 -1.91049882E+01  0.00000000E+00  9.55249411E+00  9.55249411E+00
 -1.91049882E+01  0.00000000E+00  9.55249411E+00  9.55249411E+00 -1.91049882E+01
  0.00000000E+00  9.55249411E+00  9.55249411E+00 -1.91049882E+01  0.00000000E+00
  9.55249411E+00  9.55249411E+00 -1.91049882E+01  0.00000000E+00  9.55249411E+00
  9.55249411E+00 -1.91049882E+01  0.00000000E+00  9.55249411E+00  9.55249411E+00
 -1.91049882E+01  0.00000000E+00  9.55249411E+00  9.55249411E+00 -1.91049882E+01
  0.00000000E+00  9.55249411E+00  9.55249411E+00 -1.91049882E+01  0.00000000E+00
  9.55249411E+00  9.55249411E+00 -1.91049882E+01  0.00000000E+00  9.55249411E+00
  9.55249411E+00 -1.91049882E+01  0.00000000E+00  9.55249411E+00  9.55249411E+00
 -1.91049882E+01  0.00000000E+00  9.55249411E+00  9.55249411E+00 -1.91049882E+01
  0.00000000E+00  9.55249411E+00  9.55249411E+00 -1.91049882E+01  0.00000000E+00
  9.55249411E+00  9.55249411E+00 -1.91049882E+01  0.00000000E+00  9.55249411E+00
  9.55249411E+00 -1.91049882E+01  0.00000000E+00  9.55249411E+00  9.55249411E+00
 -1.91049882E+01  0.00000000E+00  9.55249411E+00  9.55249411E+00 -1.91049882E+01
  0.00000000E+00  9.55249411E+00  9.55249411E+00 -1.91049882E+01  0.00000000E+00
  9.55249411E+00  9.55249411E+00 -1.91049882E+01  0.00000000E+00  9.55249411E+00
  9.55249411E+00 -1.91049882E+01  0.00000000E+00  9.55249411E+00  9.55249411E+00
 -1.91049882E+01  0.00000000E+00  9.55249411E+00  9.55249411E+00 -1.91049882E+01
  0.00000000E+00  9.55249411E+00  9.55249411E+00 -1.91049882E+01  0.00000000E+00
  9.55249411E+00  9.55249411E+00 -1.91049882E+01  0.00000000E+00  9.55249411E+00
  9.55249411E+00 -1.91049882E+01  0.00000000E+00  9.55249411E+00  9.55249411E+00
 -1.91049882E+01  0.00000000E+00  9.55249411E+00  9.55249411E+00 -1.91049882E+01
  0.00000000E+00  9.55249411E+00  9.55249411E+00 -1.91049882E+01  0.00000000E+00
  9.55249411E+00  9.55249411E+00 -1.91049882E+01  0.00000000E+00  9.55249411E+00
  9.55249411E+00 -1.91049882E+01  0.00000000E+00  9.55249411E+00  9.55249411E+00
 -1.91049882E+01  0.00000000E+00  9.55249411E+00  9.55249411E+00 -1.91049882E+01
  0.00000000E+00  9.55249411E+00  9.55249411E+00 -1.91049882E+01  0.00000000E+00
  9.55249411E+00  9.55249411E+00 -1.91049882E+01  0.00000000E+00  9.55249411E+00
  9.55249411E+00 -1.91049882E+01  0.00000000E+00  9.55249411E+00  9.55249411E+00
 -1.91049882E+01  0.00000000E+00  9.55249411E+00  9.55249411E+00 -1.91049882E+01
  0.00000000E+00  9.55249411E+00  9.55249411E+00 -1.91049882E+01  0.00000000E+00
  9.55249411E+00  9.55249411E+00 -1.91049882E+01  0.00000000E+00  9.55249411E+00
  9.55249411E+00 -1.91049882E+01  0.00000000E+00  9.55249411E+00  9.55249411E+00
 -1.91049882E+01  0.00000000E+00  9.55249411E+00  9.55249411E+00 -1.91049882E+01
  0.00000000E+00  9.55249411E+00  9.55249411E+00 -1.91049882E+01  0.00000000E+00
  9.55249411E+00  9.55249411E+00 -1.91049882E+01  0.00000000E+00  9.55249411E+00
  9.55249411E+00 -1.91049882E+01  0.00000000E+00  9.55249411E+00  9.55249411E+00
 -1.91049882E+01  0.00000000E+00  9.55249411E+00  9.55249411E+00 -1.91049882E+01
  0.00000000E+00  9.55249411E+00  9.55249411E+00 -1.91049882E+01  0.00000000E+00
  9.55249411E+00  9.55249411E+00 -1.91049882E+01  0.00000000E+00  9.55249411E+00
  9.55249411E+00 -1.91049882E+01  0.00000000E+00  9.55249411E+00  9.55249411E+00
 -1.91049882E+01  0.00000000E+00  9.55249411E+00  9.55249411E+00 -1.91049882E+01
  0.00000000E+00  9.55249411E+00  9.55249411E+00 -1.91049882E+01  0.00000000E+00
  9.55249411E+00  9.55249411E+00 -1.91049882E+01  0.00000000E+00  9.55249411E+00
  9.55249411E+00 -1.91049882E+01  0.00000000E+00  9.55249411E+00  9.55249411E+00
 -1.91049882E+01  0.00000000E+00  9.55249411E+00  9.55249411E+00 -1.91049882E+01
  0.00000000E+00  9.55249411E+00  9.55249411E+00 -1.91049882E+01  0.00000000E+00
  9.55249411E+00  9.55249411E+00 -1.91049882E+01  0.00000000E+00  9.55249411E+00
  9.55249411E+00 -1.91049882E+01  0.00000000E+00  9.55249411E+00  9.55249411E+00
 -1.91049882E+01  0.00000000E+00  9.55249411E+00  9.55249411E+00 -1.91049882E+01
  0.00000000E+00  9.55249411E+00  9.55249411E+00 -1.91049882E+01  0.00000000E+00
  9.55249411E+00  9.55249411E+00 -1.91049882E+01  0.00000000E+00  9.55249411E+00
  9.55249411E+00 -1.91049882E+01  0.00000000E+00  9.55249411E+00  9.55249411E+00
 -1.91049882E+01  0.00000000E+00  9.55249411E+00  9.55249411E+00 -1.91049882E+01
  0.00000000E+00  9.55249411E+00  9.55249411E+00 -1.91049882E+01  0.00000000E+00
  9.55249411E+00  9.55249411E+00 -1.91049882E+01  0.00000000E+00  9.55249411E+00
  9.55249411E+00 -1.91049882E+01  0.00000000E+00  9.55249411E+00  9.55249411E+00
 -1.91049882E+01  0.00000000E+00  9.55249411E+00  9.55249411E+00 -1.91049882E+01
  0.00000000E+00  9.55249411E+00  9.55249411E+00 -1.91049882E+01  0.00000000E+00
  9.55249411E+00  9.55249411E+00 -1.91049882E+01  0.00000000E+00  9.55249411E+00
  9.55249411E+00 -1.91049882E+01  0.00000000E+00  9.55249411E+00  9.55249411E+00
 -1.91049882E+01  0.00000000E+00  9.55249411E+00  9.55249411E+00 -1.91049882E+01
  0.00000000E+00  9.55249411E+00  9.55249411E+00 -1.91049882E+01  0.00000000E+00
  9.55249411E+00  9.55249411E+00 -1.91049882E+01  0.00000000E+00  9.55249411E+00
  9.55249411E+00 -1.91049882E+01  0.00000000E+00  9.55249411E+00  9.55249411E+00
 -1.91049882E+01  0.00000000E+00  9.55249411E+00  9.55249411E+00 -1.91049882E+01
  0.00000000E+00  9.55249411E+00  9.55249411E+00 -1.91049882E+01  0.00000000E+00
  9.55249411E+00  9.55249411E+00 -1.91049882E+01  0.00000000E+00  9.55249411E+00
  9.55249411E+00 -1.91049882E+01  0.00000000E+00  9.55249411E+00  9.55249411E+00
 -1.91049882E+01  0.00000000E+00  9.55249411E+00  9.55249411E+00 -1.91049882E+01
  0.00000000E+00  9.55249411E+00  9.55249411E+00 -1.91049882E+01  0.00000000E+00
  9.55249411E+00  9.55249411E+00 -1.91049882E+01  0.00000000E+00  9.55249411E+00
  9.55249411E+00 -1.91049882E+01  0.00000000E+00  9.55249411E+00  9.55249411E+00
 -1.91049882E+01  0.00000000E+00  9.55249411E+00  9.55249411E+00 -1.91049882E+01
  0.00000000E+00  9.55249411E+00  9.55249411E+00 -1.91049882E+01  0.00000000E+00
  9.55249411E+00  9.55249411E+00 -1.91049882E+01  0.00000000E+00  9.55249411E+00
  9.55249411E+00 -1.91049882E+01  0.00000000E+00  9.55249411E+00  9.55249411E+00
 -1.91049882E+01  0.00000000E+00  9.55249411E+00  9.55249411E+00 -1.91049882E+01
  0.00000000E+00  9.55249411E+00  9.55249411E+00 -1.91049882E+01  0.00000000E+00
  9.55249411E+00  9.55249411E+00 -1.91049882E+01  0.00000000E+00  9.55249411E+00
  9.55249411E+00 -1.91049882E+01  0.00000000E+00  9.55249411E+00  9.55249411E+00
 -1.91049882E+01  0.00000000E+00  9.55249411E+00  9.55249411E+00 -1.91049882E+01
  0.00000000E+00  9.55249411E+00  9.55249411E+00 -1.91049882E+01  0.00000000E+00
  9.55249411E+00  9.55249411E+00 -1.91049882E+01  0.00000000E+00  9.55249411E+00
  9.55249411E+00 -1.91049882E+01  0.00000000E+00  9.55249411E+00  9.55249411E+00
 -1.91049882E+01  0.00000000E+00  9.55249411E+00  9.55249411E+00 -1.91049882E+01
  0.00000000E+00  9.55249411E+00  9.55249411E+00 -1.91049882E+01  0.00000000E+00
  9.55249411E+00  9.55249411E+00 -1.91049882E+01  0.00000000E+00  9.55249411E+00
  9.55249411E+00 -1.91049882E+01  0.00000000E+00  9.55249411E+00  9.55249411E+00
 -1.91049882E+01  0.00000000E+00  9.55249411E+00  9.55249411E+00 -1.91049882E+01
  0.00000000E+00  9.55249411E+00  9.55249411E+00 -1.91049882E+01  0.00000000E+00
  9.55249411E+00  9.55249411E+00 -1.91049882E+01  0.00000000E+00  9.55249411E+00
  9.55249411E+00 -1.91049882E+01  0.00000000E+00  9.55249411E+00  9.55249411E+00
 -1.91049882E+01  0.00000000E+00  9.55249411E+00  9.55249411E+00 -1.91049882E+01
  0.00000000E+00  9.55249411E+00  9.55249411E+00 -1.91049882E+01  0.00000000E+00
  9.55249411E+00  9.55249411E+00 -1.91049882E+01  0.00000000E+00  9.55249411E+00
  9.55249411E+00 -1.91049882E+01  0.00000000E+00  9.55249411E+00  9.55249411E+00
 -1.91049882E+01  0.00000000E+00  9.55249411E+00  9.55249411E+00 -1.91049882E+01
  0.00000000E+00  9.55249411E+00  9.55249411E+00 -1.91049882E+01  0.00000000E+00
  9.55249411E+00  9.55249411E+00 -1.91049882E+01  0.00000000E+00  9.55249411E+00
  9.55249411E+00 -1.91049882E+01  0.00000000E+00  9.55249411E+00  9.55249411E+00
 -1.91049882E+01  0.00000000E+00  9.55249411E+00  9.55249411E+00 -1.91049882E+01
  0.00000000E+00  9.55249411E+00  9.55249411E+00 -1.91049882E+01  0.00000000E+00
  9.55249411E+00  9.55249411E+00 -1.91049882E+01  0.00000000E+00  9.55249411E+00
  9.55249411E+00 -1.91049882E+01  0.00000000E+00  9.55249411E+00  9.55249411E+00
 -1.91049882E+01  0.00000000E+00  9.55249411E+00  9.55249411E+00 -1.91049882E+01
  0.00000000E+00  9.55249411E+00  9.55249411E+00 -1.91049882E+01  0.00000000E+00
  9.55249411E+00  9.55249411E+00 -1.91049882E+01  0.00000000E+00  9.55249411E+00
  9.55249411E+00 -1.91049882E+01  0.00000000E+00  9.55249411E+00  9.55249411E+00
 -1.91049882E+01  0.00000000E+00  9.55249411E+00  9.55249411E+00 -1.91049882E+01
  0.00000000E+00  9.55249411E+00  9.55249411E+00 -1.91049882E+01  0.00000000E+00
  9.55249411E+00  9.55249411E+00 -1.91049882E+01  0.00000000E+00  9.55249411E+00
  9.55249411E+00 -1.91049882E+01  0.00000000E+00  9.55249411E+00  9.55249411E+00
 -1.91049882E+01  0.00000000E+00  9.55249411E+00  9.55249411E+00 -1.91049882E+01
  0.00000000E+00  9.55249411E+00  9.55249411E+00 -1.91049882E+01  0.00000000E+00
  9.55249411E+00  9.55249411E+00 -1.91049882E+01  0.00000000E+00  9.55249411E+00
  9.55249411E+00 -1.91049882E+01  0.00000000E+00  9.55249411E+00  9.55249411E+00
 -1.91049882E+01  0.00000000E+00  9.55249411E+00  9.55249411E+00 -1.91049882E+01
  0.00000000E+00  9.55249411E+00  9.55249411E+00 -1.91049882E+01  0.00000000E+00
  9.55249411E+00  9.55249411E+00 -1.91049882E+01  0.00000000E+00  9.55249411E+00
  9.55249411E+00 -1.91049882E+01  0.00000000E+00  9.55249411E+00  9.55249411E+00
 -1.91049882E+01  0.00000000E+00  9.55249411E+00  9.55249411E+00 -1.91049882E+01
  0.00000000E+00  9.55249411E+00  9.55249411E+00 -1.91049882E+01  0.00000000E+00
  9.55249411E+00  9.55249411E+00 -1.91049882E+01  0.00000000E+00  9.55249411E+00
  9.55249411E+00 -1.91049882E+01  0.00000000E+00  9.55249411E+00  9.55249411E+00
 -1.91049882E+01  0.00000000E+00  9.55249411E+00  9.55249411E+00 -1.91049882E+01
  0.00000000E+00  9.55249411E+00  9.55249411E+00 -1.91049882E+01  0.00000000E+00
  9.55249411E+00  9.55249411E+00 -1.91049882E+01  0.00000000E+00  9.55249411E+00
  9.55249411E+00 -1.91049882E+01  0.00000000E+00  9.55249411E+00  9.55249411E+00
 -1.91049882E+01  0.00000000E+00  9.55249411E+00  9.55249411E+00 -1.91049882E+01
  0.00000000E+00  9.55249411E+00  9.55249411E+00 -1.91049882E+01  0.00000000E+00
  9.55249411E+00  9.55249411E+00 -1.91049882E+01  0.00000000E+00  9.55249411E+00
  9.55249411E+00 -1.91049882E+01  0.00000000E+00  9.55249411E+00  9.55249411E+00
 -1.91049882E+01  0.00000000E+00  9.55249411E+00  9.55249411E+00 -1.91049882E+01
  0.00000000E+00  9.55249411E+00  9.55249411E+00 -1.91049882E+01  0.00000000E+00
  9.55249411E+00  9.55249411E+00 -1.91049882E+01  0.00000000E+00  9.55249411E+00
  9.55249411E+00 -1.91049882E+01  0.00000000E+00  9.55249411E+00  9.55249411E+00
 -1.91049882E+01  0.00000000E+00  9.55249411E+00  9.55249411E+00 -1.91049882E+01
  0.00000000E+00  9.55249411E+00  9.55249411E+00 -1.91049882E+01  0.00000000E+00
  9.55249411E+00  9.55249411E+00 -1.91049882E+01  0.00000000E+00  9.55249411E+00
  9.55249411E+00 -1.91049882E+01  0.00000000E+00  9.55249411E+00  9.55249411E+00
 -1.91049882E+01  0.00000000E+00  9.55249411E+00  9.55249411E+00 -1.91049882E+01
  0.00000000E+00  9.55249411E+00  9.55249411E+00 -1.91049882E+01  0.00000000E+00
  9.55249411E+00  9.55249411E+00 -1.91049882E+01  0.00000000E+00  9.55249411E+00
  9.55249411E+00 -1.91049882E+01  0.00000000E+00  9.55249411E+00  9.55249411E+00
 -1.91049882E+01  0.00000000E+00  9.55249411E+00  9.55249411E+00 -1.91049882E+01
  0.00000000E+00  9.55249411E+00  9.55249411E+00 -1.91049882E+01  0.00000000E+00
  9.55249411E+00  9.55249411E+00 -1.91049882E+01  0.00000000E+00  9.55249411E+00
  9.55249411E+00 -1.91049882E+01  0.00000000E+00  9.55249411E+00  9.55249411E+00
 -1.91049882E+01  0.00000000E+00  9.55249411E+00  9.55249411E+00 -1.91049882E+01
  0.00000000E+00  9.55249411E+00  9.55249411E+00 -1.91049882E+01  0.00000000E+00
  9.55249411E+00  9.55249411E+00 -1.91049882E+01  0.00000000E+00  9.55249411E+00
  9.55249411E+00 -1.91049882E+01  0.00000000E+00  9.55249411E+00  9.55249411E+00
 -1.91049882E+01  0.00000000E+00  9.55249411E+00  9.55249411E+00 -1.91049882E+01
  0.00000000E+00  9.55249411E+00  9.55249411E+00 -1.91049882E+01  0.00000000E+00
  9.55249411E+00  9.55249411E+00 -1.91049882E+01  0.00000000E+00  9.55249411E+00
  9.55249411E+00 -1.91049882E+01  0.00000000E+00  9.55249411E+00  9.55249411E+00
 -1.91049882E+01  0.00000000E+00  9.55249411E+00  9.55249411E+00 -1.91049882E+01
  0.00000000E+00  9.55249411E+00  9.55249411E+00 -1.91049882E+01  0.00000000E+00
  9.55249411E+00  9.55249411E+00 -1.91049882E+01  0.00000000E+00  9.55249411E+00
  9.55249411E+00 -1.91049882E+01  0.00000000E+00  9.55249411E+00  9.55249411E+00
 -1.91049882E+01  0.00000000E+00  9.55249411E+00  9.55249411E+00 -1.91049882E+01
  0.00000000E+00  9.55249411E+00  9.55249411E+00 -1.91049882E+01  0.00000000E+00
  9.55249411E+00  9.55249411E+00 -1.91049882E+01  0.00000000E+00  9.55249411E+00
  9.55249411E+00 -1.91049882E+01  0.00000000E+00  9.55249411E+00  9.55249411E+00
 -1.91049882E+01  0.00000000E+00  9.55249411E+00  9.55249411E+00 -1.91049882E+01
  0.00000000E+00  9.55249411E+00  9.55249411E+00 -1.91049882E+01  0.00000000E+00
  9.55249411E+00  9.55249411E+00 -1.91049882E+01  0.00000000E+00  9.55249411E+00
  9.55249411E+00 -1.91049882E+01  0.00000000E+00  9.55249411E+00  9.55249411E+00
 -1.91049882E+01  0.00000000E+00  9.55249411E+00  9.55249411E+00 -1.91049882E+01
  0.00000000E+00  9.55249411E+00  9.55249411E+00 -1.91049882E+01  0.00000000E+00
  9.55249411E+00  9.55249411E+00 -1.91049882E+01  0.00000000E+00  9.55249411E+00
  9.55249411E+00 -1.91049882E+01  0.00000000E+00  9.55249411E+00  9.55249411E+00
 -1.91049882E+01  0.00000000E+00  9.55249411E+00  9.55249411E+00 -1.91049882E+01
  0.00000000E+00  9.55249411E+00  9.55249411E+00 -1.91049882E+01  0.00000000E+00
  9.55249411E+00  9.55249411E+00 -1.91049882E+01  0.00000000E+00  9.55249411E+00
  9.55249411E+00 -1.91049882E+01  0.00000000E+00  9.55249411E+00  9.55249411E+00
 -1.91049882E+01  0.00000000E+00  9.55249411E+00  9.55249411E+00 -1.91049882E+01
  0.00000000E+00  9.55249411E+00  9.55249411E+00 -1.91049882E+01  0.00000000E+00
  9.55249411E+00  9.55249411E+00 -1.91049882E+01  0.00000000E+00  9.55249411E+00
  9.55249411E+00 -1.91049882E+01  0.00000000E+00  9.55249411E+00  9.55249411E+00
 -1.91049882E+01  0.00000000E+00  9.55249411E+00  9.55249411E+00 -1.91049882E+01
  0.00000000E+00  9.55249411E+00  9.55249411E+00 -1.91049882E+01  0.00000000E+00
  9.55249411E+00  9.55249411E+00 -1.91049882E+01  0.00000000E+00  9.55249411E+00
  9.55249411E+00 -1.91049882E+01  0.00000000E+00  9.55249411E+00  9.55249411E+00
 -1.91049882E+01  0.00000000E+00  9.55249411E+00  9.55249411E+00 -1.91049882E+01
  0.00000000E+00  9.55249411E+00  9.55249411E+00 -1.91049882E+01  0.00000000E+00
  9.55249411E+00  9.55249411E+00 -1.91049882E+01  0.00000000E+00  9.55249411E+00
  9.55249411E+00 -1.91049882E+01  0.00000000E+00  9.55249411E+00  9.55249411E+00
 -1.91049882E+01  0.00000000E+00  9.55249411E+00  9.55249411E+00 -1.91049882E+01
  0.00000000E+00  9.55249411E+00  9.55249411E+00 -1.91049882E+01  0.00000000E+00
  9.55249411E+00  9.55249411E+00 -1.91049882E+01  0.00000000E+00  9.55249411E+00
  9.55249411E+00 -1.91049882E+01  0.00000000E+00  9.55249411E+00  9.55249411E+00
 -1.91049882E+01  0.00000000E+00  9.55249411E+00  9.55249411E+00 -1.91049882E+01
  0.00000000E+00  9.55249411E+00  9.55249411E+00 -1.91049882E+01  0.00000000E+00
  9.55249411E+00  9.55249411E+00 -1.91049882E+01  0.00000000E+00  9.55249411E+00
  9.55249411E+00 -1.91049882E+01  0.00000000E+00  9.55249411E+00  9.55249411E+00
 -1.91049882E+01  0.00000000E+00  9.55249411E+00  9.55249411E+00 -1.91049882E+01
  0.00000000E+00  9.55249411E+00  9.55249411E+00 -1.91049882E+01  0.00000000E+00
  9.55249411E+00  9.55249411E+00 -1.91049882E+01  0.00000000E+00  9.55249411E+00
  9.55249411E+00 -1.91049882E+01  0.00000000E+00  9.55249411E+00  9.55249411E+00
 -1.91049882E+01  0.00000000E+00  9.55249411E+00  9.55249411E+00 -1.91049882E+01
  0.00000000E+00  9.55249411E+00  9.55249411E+00 -1.91049882E+01  0.00000000E+00
  9.55249411E+00  9.55249411E+00 -1.91049882E+01  0.00000000E+00  9.55249411E+00
  9.55249411E+00 -1.91049882E+01  0.00000000E+00  9.55249411E+00  9.55249411E+00
 -1.91049882E+01  0.00000000E+00  9.55249411E+00  9.55249411E+00 -1.91049882E+01
  0.00000000E+00  9.55249411E+00  9.55249411E+00 -1.91049882E+01  0.00000000E+00
  9.55249411E+00  9.55249411E+00 -1.91049882E+01  0.00000000E+00  9.55249411E+00
  9.55249411E+00 -1.91049882E+01  0.00000000E+00  9.55249411E+00  9.55249411E+00
 -1.91049882E+01  0.00000000E+00  9.55249411E+00  9.55249411E+00 -1.91049882E+01
  0.00000000E+00  9.55249411E+00  9.55249411E+00 -1.91049882E+01  0.00000000E+00
  9.55249411E+00  9.55249411E+00 -1.91049882E+01  0.00000000E+00  9.55249411E+00
  9.55249411E+00 -1.91049882E+01  0.00000000E+00  9.55249411E+00  9.55249411E+00
 -1.91049882E+01  0.00000000E+00  9.55249411E+00  9.55249411E+00 -1.91049882E+01
  0.00000000E+00  9.55249411E+00  9.55249411E+00 -1.91049882E+01  0.00000000E+00
  9.55249411E+00  9.55249411E+00 -1.91049882E+01  0.00000000E+00  9.55249411E+00
  9.55249411E+00 -1.91049882E+01  0.00000000E+00  9.55249411E+00  9.55249411E+00
 -1.91049882E+01  0.00000000E+00  9.55249411E+00  9.55249411E+00 -1.91049882E+01
  0.00000000E+00  9.55249411E+00  9.55249411E+00 -1.91049882E+01  0.00000000E+00
  9.55249411E+00  9.55249411E+00 -1.91049882E+01  0.00000000E+00  9.55249411E+00
  9.55249411E+00 -1.91049882E+01  0.00000000E+00  9.55249411E+00  9.55249411E+00
 -1.91049882E+01  0.00000000E+00  9.55249411E+00  9.55249411E+00 -1.91049882E+01
  0.00000000E+00  9.55249411E+00  9.55249411E+00 -1.91049882E+01  0.00000000E+00
  9.55249411E+00  9.55249411E+00 -1.91049882E+01  0.00000000E+00  9.55249411E+00
  9.55249411E+00 -1.91049882E+01  0.00000000E+00  9.55249411E+00  9.55249411E+00
 -1.91049882E+01  0.00000000E+00  9.55249411E+00  9.55249411E+00 -1.91049882E+01
  0.00000000E+00  9.55249411E+00  9.55249411E+00 -1.91049882E+01  0.00000000E+00
  9.55249411E+00  9.55249411E+00 -1.91049882E+01  0.00000000E+00  9.55249411E+00
  9.55249411E+00 -1.91049882E+01  0.00000000E+00  9.55249411E+00  9.55249411E+00
 -1.91049882E+01  0.00000000E+00  9.55249411E+00  9.55249411E+00 -1.91049882E+01
  0.00000000E+00  9.55249411E+00  9.55249411E+00 -1.91049882E+01  0.00000000E+00
  9.55249411E+00  9.55249411E+00 -1.91049882E+01  0.00000000E+00  9.55249411E+00
  9.55249411E+00 -1.91049882E+01  0.00000000E+00  9.55249411E+00  9.55249411E+00
 -1.91049882E+01  0.00000000E+00  9.55249411E+00  9.55249411E+00 -1.91049882E+01
  0.00000000E+00  9.55249411E+00  9.55249411E+00 -1.91049882E+01  0.00000000E+00
  9.55249411E+00  9.55249411E+00 -1.91049882E+01  0.00000000E+00  9.55249411E+00
  9.55249411E+00 -1.91049882E+01  0.00000000E+00  9.55249411E+00  9.55249411E+00
 -1.91049882E+01  0.00000000E+00  9.55249411E+00  9.55249411E+00 -1.91049882E+01
  0.00000000E+00  9.55249411E+00  9.55249411E+00 -1.91049882E+01  0.00000000E+00
  9.55249411E+00  9.55249411E+00 -1.91049882E+01  0.00000000E+00  9.55249411E+00
  9.55249411E+00 -1.91049882E+01  0.00000000E+00  9.55249411E+00  9.55249411E+00
 -1.91049882E+01  0.00000000E+00  9.55249411E+00  9.55249411E+00 -1.91049882E+01
  0.00000000E+00  9.55249411E+00  9.55249411E+00 -1.91049882E+01  0.00000000E+00
  9.55249411E+00  9.55249411E+00 -1.91049882E+01  0.00000000E+00  9.55249411E+00
  9.55249411E+00 -1.91049882E+01  0.00000000E+00  9.55249411E+00  9.55249411E+00
 -1.91049882E+01  0.00000000E+00  9.55249411E+00  9.55249411E+00 -1.91049882E+01
  0.00000000E+00  9.55249411E+00  9.55249411E+00 -1.91049882E+01  0.00000000E+00
  9.55249411E+00  9.55249411E+00 -1.91049882E+01  0.00000000E+00  9.55249411E+00
  9.55249411E+00 -1.91049882E+01  0.00000000E+00  9.55249411E+00  9.55249411E+00
 -1.91049882E+01  0.00000000E+00  9.55249411E+00  9.55249411E+00 -1.91049882E+01
  0.00000000E+00  9.55249411E+00  9.55249411E+00 -1.91049882E+01  0.00000000E+00
  9.55249411E+00  9.55249411E+00 -1.91049882E+01  0.00000000E+00  9.55249411E+00
  9.55249411E+00 -1.91049882E+01  0.00000000E+00  9.55249411E+00  9.55249411E+00
 -1.91049882E+01  0.00000000E+00  9.55249411E+00  9.55249411E+00 -1.91049882E+01
  0.00000000E+00  9.55249411E+00  9.55249411E+00 -1.91049882E+01  0.00000000E+00
  9.55249411E+00  9.55249411E+00 -1.91049882E+01  0.00000000E+00  9.55249411E+00
  9.55249411E+00 -1.91049882E+01  0.00000000E+00  9.55249411E+00  9.55249411E+00
 -1.91049882E+01  0.00000000E+00  9.55249411E+00  9.55249411E+00 -1.91049882E+01
  0.00000000E+00  9.55249411E+00  9.55249411E+00 -1.91049882E+01  0.00000000E+00
  9.55249411E+00  9.55249411E+00 -1.91049882E+01  0.00000000E+00  9.55249411E+00
  9.55249411E+00 -1.91049882E+01  0.00000000E+00  9.55249411E+00  9.55249411E+00
 -1.91049882E+01  0.00000000E+00  9.55249411E+00  9.55249411E+00 -1.91049882E+01
  0.00000000E+00  9.55249411E+00  9.55249411E+00 -1.91049882E+01  0.00000000E+00
  9.55249411E+00  9.55249411E+00 -1.91049882E+01  0.00000000E+00  9.55249411E+00
  9.55249411E+00 -1.91049882E+01  0.00000000E+00  9.55249411E+00  9.55249411E+00
 -1.91049882E+01  0.00000000E+00  9.55249411E+00  9.55249411E+00 -1.91049882E+01
  0.00000000E+00  9.55249411E+00  9.55249411E+00 -1.91049882E+01  0.00000000E+00
  9.55249411E+00  9.55249411E+00 -1.91049882E+01  0.00000000E+00  9.55249411E+00
  9.55249411E+00 -1.91049882E+01  0.00000000E+00  9.55249411E+00  9.55249411E+00
 -1.91049882E+01  0.00000000E+00  9.55249411E+00  9.55249411E+00 -1.91049882E+01
  0.00000000E+00  9.55249411E+00  9.55249411E+00 -1.91049882E+01  0.00000000E+00
  9.55249411E+00  9.55249411E+00 -1.91049882E+01  0.00000000E+00  9.55249411E+00
  9.55249411E+00 -1.91049882E+01  0.00000000E+00  9.55249411E+00  9.55249411E+00
 -1.91049882E+01  0.00000000E+00  9.55249411E+00  9.55249411E+00 -1.91049882E+01
  0.00000000E+00  9.55249411E+00  9.55249411E+00 -1.91049882E+01  0.00000000E+00
  9.55249411E+00  9.55249411E+00 -1.91049882E+01  0.00000000E+00  9.55249411E+00
  9.55249411E+00 -1.91049882E+01  0.00000000E+00  9.55249411E+00  9.55249411E+00
 -1.91049882E+01  0.00000000E+00  9.55249411E+00  9.55249411E+00 -1.91049882E+01
  0.00000000E+00  9.55249411E+00  9.55249411E+00 -1.91049882E+01  0.00000000E+00
  9.55249411E+00  9.55249411E+00 -1.91049882E+01  0.00000000E+00  9.55249411E+00
  9.55249411E+00 -1.91049882E+01  0.00000000E+00  9.55249411E+00  9.55249411E+00
 -1.91049882E+01  0.00000000E+00  9.55249411E+00  9.55249411E+00 -1.91049882E+01
  0.00000000E+00  9.55249411E+00  9.55249411E+00 -1.91049882E+01  0.00000000E+00
  9.55249411E+00  9.55249411E+00 -1.91049882E+01  0.00000000E+00  9.55249411E+00
  9.55249411E+00 -1.91049882E+01  0.00000000E+00  9.55249411E+00  9.55249411E+00
 -1.91049882E+01  0.00000000E+00  9.55249411E+00  9.55249411E+00 -1.91049882E+01
  0.00000000E+00  9.55249411E+00  9.55249411E+00 -1.91049882E+01  0.00000000E+00
  9.55249411E+00  9.55249411E+00 -1.91049882E+01  0.00000000E+00  9.55249411E+00
  9.55249411E+00 -1.91049882E+01  0.00000000E+00  9.55249411E+00  9.55249411E+00
 -1.91049882E+01  0.00000000E+00  9.55249411E+00  9.55249411E+00 -1.91049882E+01
  0.00000000E+00  9.55249411E+00  9.55249411E+00 -1.91049882E+01  0.00000000E+00
  9.55249411E+00  9.55249411E+00 -1.91049882E+01  0.00000000E+00  9.55249411E+00
  9.55249411E+00 -1.91049882E+01  0.00000000E+00  9.55249411E+00  9.55249411E+00
 -1.91049882E+01  0.00000000E+00  9.55249411E+00  9.55249411E+00 -1.91049882E+01
  0.00000000E+00  9.55249411E+00  9.55249411E+00 -1.91049882E+01  0.00000000E+00
  9.55249411E+00  9.55249411E+00 -1.91049882E+01  0.00000000E+00  9.55249411E+00
  9.55249411E+00 -1.91049882E+01  0.00000000E+00  9.55249411E+00  9.55249411E+00
 -1.91049882E+01  0.00000000E+00  9.55249411E+00  9.55249411E+00 -1.91049882E+01
  0.00000000E+00  9.55249411E+00  9.55249411E+00 -1.91049882E+01  0.00000000E+00
  9.55249411E+00  9.55249411E+00 -1.91049882E+01  0.00000000E+00  9.55249411E+00
  9.55249411E+00 -1.91049882E+01  0.00000000E+00  9.55249411E+00  9.55249411E+00
 -1.91049882E+01  0.00000000E+00  9.55249411E+00  9.55249411E+00 -1.91049882E+01
  0.00000000E+00  9.55249411E+00  9.55249411E+00 -1.91049882E+01  0.00000000E+00
  9.55249411E+00  9.55249411E+00 -1.91049882E+01  0.00000000E+00  9.55249411E+00
  9.55249411E+00 -1.91049882E+01  0.00000000E+00  9.55249411E+00  9.55249411E+00
 -1.91049882E+01  0.00000000E+00  9.55249411E+00  9.55249411E+00 -1.91049882E+01
  0.00000000E+00  9.55249411E+00  9.55249411E+00 -1.91049882E+01  0.00000000E+00
  9.55249411E+00  9.55249411E+00 -1.91049882E+01  0.00000000E+00  9.55249411E+00
  9.55249411E+00 -1.91049882E+01  0.00000000E+00  9.55249411E+00  9.55249411E+00
 -1.91049882E+01  0.00000000E+00  9.55249411E+00  9.55249411E+00 -1.91049882E+01
  0.00000000E+00  9.55249411E+00  9.55249411E+00 -1.91049882E+01  0.00000000E+00
  9.55249411E+00  9.55249411E+00 -1.91049882E+01  0.00000000E+00  9.55249411E+00
  9.55249411E+00 -1.91049882E+01  0.00000000E+00  9.55249411E+00  9.55249411E+00
 -1.91049882E+01  0.00000000E+00  9.55249411E+00  9.55249411E+00 -1.91049882E+01
  0.00000000E+00  9.55249411E+00  9.55249411E+00 -1.91049882E+01  0.00000000E+00
  9.55249411E+00  9.55249411E+00 -1.91049882E+01  0.00000000E+00  9.55249411E+00
  9.55249411E+00 -1.91049882E+01  0.00000000E+00  9.55249411E+00  9.55249411E+00
 -1.91049882E+01  0.00000000E+00  9.55249411E+00  9.55249411E+00 -1.91049882E+01
  0.00000000E+00  9.55249411E+00  9.55249411E+00 -1.91049882E+01  0.00000000E+00
  9.55249411E+00  9.55249411E+00 -1.91049882E+01  0.00000000E+00  9.55249411E+00
  9.55249411E+00 -1.91049882E+01  0.00000000E+00  9.55249411E+00  9.55249411E+00
 -1.91049882E+01  0.00000000E+00  9.55249411E+00  9.55249411E+00 -1.91049882E+01
  0.00000000E+00  9.55249411E+00  9.55249411E+00 -1.91049882E+01  0.00000000E+00
  9.55249411E+00  9.55249411E+00 -1.91049882E+01  0.00000000E+00  9.55249411E+00
  9.55249411E+00 -1.91049882E+01  0.00000000E+00  9.55249411E+00  9.55249411E+00
 -1.91049882E+01  0.00000000E+00  9.55249411E+00  9.55249411E+00 -1.91049882E+01
  0.00000000E+00  9.55249411E+00  9.55249411E+00 -1.91049882E+01  0.00000000E+00
  9.55249411E+00  9.55249411E+00 -1.91049882E+01  0.00000000E+00  9.55249411E+00
  9.55249411E+00 -1.91049882E+01  0.00000000E+00  9.55249411E+00  9.55249411E+00
 -1.91049882E+01  0.00000000E+00  9.55249411E+00  9.55249411E+00 -1.91049882E+01
  0.00000000E+00  9.55249411E+00  9.55249411E+00 -1.91049882E+01  0.00000000E+00
  9.55249411E+00  9.55249411E+00 -1.91049882E+01  0.00000000E+00  9.55249411E+00
  9.55249411E+00 -1.91049882E+01  0.00000000E+00  9.55249411E+00  9.55249411E+00
 -1.91049882E+01  0.00000000E+00  9.55249411E+00  9.55249411E+00 -1.91049882E+01
  0.00000000E+00  9.55249411E+00  9.55249411E+00 -1.91049882E+01  0.00000000E+00
  9.55249411E+00  9.55249411E+00 -1.91049882E+01  0.00000000E+00  9.55249411E+00
  9.55249411E+00 -1.91049882E+01  0.00000000E+00  9.55249411E+00  9.55249411E+00
 -1.91049882E+01  0.00000000E+00  9.55249411E+00  9.55249411E+00 -1.91049882E+01
  0.00000000E+00  9.55249411E+00  9.55249411E+00 -1.91049882E+01  0.00000000E+00
  9.55249411E+00  9.55249411E+00 -1.91049882E+01  0.00000000E+00  9.55249411E+00
  9.55249411E+00 -1.91049882E+01  0.00000000E+00  9.55249411E+00  9.55249411E+00
 -1.91049882E+01  0.00000000E+00  9.55249411E+00  9.55249411E+00 -1.91049882E+01
  0.00000000E+00  9.55249411E+00  9.55249411E+00 -1.91049882E+01  0.00000000E+00
  9.55249411E+00  9.55249411E+00 -1.91049882E+01  0.00000000E+00  9.55249411E+00
  9.55249411E+00 -1.91049882E+01  0.00000000E+00  9.55249411E+00  9.55249411E+00
 -1.91049882E+01  0.00000000E+00  9.55249411E+00  9.55249411E+00 -1.91049882E+01
  0.00000000E+00  9.55249411E+00  9.55249411E+00 -1.91049882E+01  0.00000000E+00
  9.55249411E+00  9.55249411E+00 -1.91049882E+01  0.00000000E+00  9.55249411E+00
  9.55249411E+00 -1.91049882E+01  0.00000000E+00  9.55249411E+00  9.55249411E+00
 -1.91049882E+01  0.00000000E+00  9.55249411E+00  9.55249411E+00 -1.91049882E+01
  0.00000000E+00  9.55249411E+00  9.55249411E+00 -1.91049882E+01  0.00000000E+00
  9.55249411E+00  9.55249411E+00 -1.91049882E+01  0.00000000E+00  9.55249411E+00
  9.55249411E+00 -1.91049882E+01  0.00000000E+00  9.55249411E+00  9.55249411E+00
 -1.91049882E+01  0.00000000E+00  9.55249411E+00  9.55249411E+00 -1.91049882E+01
  0.00000000E+00  9.55249411E+00  9.55249411E+00 -1.91049882E+01  0.00000000E+00
  9.55249411E+00  9.55249411E+00 -1.91049882E+01  0.00000000E+00  9.55249411E+00
  9.55249411E+00 -1.91049882E+01  0.00000000E+00  9.55249411E+00  9.55249411E+00
 -1.91049882E+01  0.00000000E+00  9.55249411E+00  9.55249411E+00 -1.91049882E+01
  0.00000000E+00  9.55249411E+00  9.55249411E+00 -1.91049882E+01  0.00000000E+00
  9.55249411E+00  9.55249411E+00 -1.91049882E+01  0.00000000E+00  9.55249411E+00
  9.55249411E+00 -1.91049882E+01  0.00000000E+00  9.55249411E+00  9.55249411E+00
 -1.91049882E+01  0.00000000E+00  9.55249411E+00  9.55249411E+00 -1.91049882E+01
  0.00000000E+00  9.55249411E+00  9.55249411E+00 -1.91049882E+01  0.00000000E+00
  9.55249411E+00  9.55249411E+00 -1.91049882E+01  0.00000000E+00  9.55249411E+00
  9.55249411E+00 -1.91049882E+01  0.00000000E+00  9.55249411E+00  9.55249411E+00
 -1.91049882E+01  0.00000000E+00  9.55249411E+00  9.55249411E+00 -1.91049882E+01
  0.00000000E+00  9.55249411E+00  9.55249411E+00 -1.91049882E+01  0.00000000E+00
  9.55249411E+00  9.55249411E+00 -1.91049882E+01  0.00000000E+00  9.55249411E+00
  9.55249411E+00 -1.91049882E+01  0.00000000E+00  9.55249411E+00  9.55249411E+00
 -1.91049882E+01  0.00000000E+00  9.55249411E+00  9.55249411E+00 -1.91049882E+01
  0.00000000E+00  9.55249411E+00  9.55249411E+00 -1.91049882E+01  0.00000000E+00
  9.55249411E+00  9.55249411E+00 -1.91049882E+01  0.00000000E+00  9.55249411E+00
  9.55249411E+00 -1.91049882E+01  0.00000000E+00  9.55249411E+00  9.55249411E+00
 -1.91049882E+01  0.00000000E+00  9.55249411E+00  9.55249411E+00 -1.91049882E+01
  0.00000000E+00  9.55249411E+00  9.55249411E+00 -1.91049882E+01  0.00000000E+00
  9.55249411E+00  9.55249411E+00 -1.91049882E+01  0.00000000E+00  9.55249411E+00
  9.55249411E+00 -1.91049882E+01  0.00000000E+00  9.55249411E+00  9.55249411E+00
 -1.91049882E+01  0.00000000E+00  9.55249411E+00  9.55249411E+00 -1.91049882E+01
  0.00000000E+00  9.55249411E+00  9.55249411E+00 -1.91049882E+01  0.00000000E+00
  9.55249411E+00  9.55249411E+00 -1.91049882E+01  0.00000000E+00  9.55249411E+00
  9.55249411E+00 -1.91049882E+01  0.00000000E+00  9.55249411E+00  9.55249411E+00
 -1.91049882E+01  0.00000000E+00  9.55249411E+00  9.55249411E+00 -1.91049882E+01
  0.00000000E+00  9.55249411E+00  9.55249411E+00 -1.91049882E+01  0.00000000E+00
  9.55249411E+00  9.55249411E+00 -1.91049882E+01  0.00000000E+00  9.55249411E+00
  9.55249411E+00 -1.91049882E+01  0.00000000E+00  9.55249411E+00  9.55249411E+00
 -1.91049882E+01  0.00000000E+00  9.55249411E+00  9.55249411E+00 -1.91049882E+01
  0.00000000E+00  9.55249411E+00  9.55249411E+00 -1.91049882E+01  0.00000000E+00
  9.55249411E+00  9.55249411E+00 -1.91049882E+01  0.00000000E+00  9.55249411E+00
  9.55249411E+00 -1.91049882E+01  0.00000000E+00  9.55249411E+00  9.55249411E+00
 -1.91049882E+01  0.00000000E+00  9.55249411E+00  9.55249411E+00 -1.91049882E+01
  0.00000000E+00  9.55249411E+00  9.55249411E+00 -1.91049882E+01  0.00000000E+00
  9.55249411E+00  9.55249411E+00 -1.91049882E+01  0.00000000E+00  9.55249411E+00
  9.55249411E+00 -1.91049882E+01  0.00000000E+00  9.55249411E+00  9.55249411E+00
 -1.91049882E+01  0.00000000E+00  9.55249411E+00  9.55249411E+00 -1.91049882E+01
  0.00000000E+00  9.55249411E+00  9.55249411E+00 -1.91049882E+01  0.00000000E+00
  9.55249411E+00  9.55249411E+00 -1.91049882E+01  0.00000000E+00  9.55249411E+00
  9.55249411E+00 -1.91049882E+01  0.00000000E+00  9.55249411E+00  9.55249411E+00
 -1.91049882E+01  0.00000000E+00  9.55249411E+00  9.55249411E+00 -1.91049882E+01
  0.00000000E+00  9.55249411E+00  9.55249411E+00 -1.91049882E+01  0.00000000E+00
  9.55249411E+00  9.55249411E+00 -1.91049882E+01  0.00000000E+00  9.55249411E+00
  9.55249411E+00 -1.91049882E+01  0.00000000E+00  9.55249411E+00  9.55249411E+00
 -1.91049882E+01  0.00000000E+00  9.55249411E+00  9.55249411E+00 -1.91049882E+01
  0.00000000E+00  9.55249411E+00  9.55249411E+00 -1.91049882E+01  0.00000000E+00
  9.55249411E+00  9.55249411E+00 -1.91049882E+01  0.00000000E+00  9.55249411E+00
  9.55249411E+00 -1.91049882E+01  0.00000000E+00  9.55249411E+00  9.55249411E+00
 -1.91049882E+01  0.00000000E+00  9.55249411E+00  9.55249411E+00 -1.91049882E+01
  0.00000000E+00  9.55249411E+00  9.55249411E+00 -1.91049882E+01  0.00000000E+00
  9.55249411E+00  9.55249411E+00 -1.91049882E+01  0.00000000E+00  9.55249411E+00
  9.55249411E+00 -1.91049882E+01  0.00000000E+00  9.55249411E+00  9.55249411E+00
 -1.91049882E+01  0.00000000E+00  9.55249411E+00  9.55249411E+00 -1.91049882E+01
  0.00000000E+00  9.55249411E+00  9.55249411E+00 -1.91049882E+01  0.00000000E+00
  9.55249411E+00  9.55249411E+00 -1.91049882E+01  0.00000000E+00  9.55249411E+00
  9.55249411E+00 -1.91049882E+01  0.00000000E+00  9.55249411E+00  9.55249411E+00
 -1.91049882E+01  0.00000000E+00  9.55249411E+00  9.55249411E+00 -1.91049882E+01
  0.00000000E+00  9.55249411E+00  9.55249411E+00 -1.91049882E+01  0.00000000E+00
  9.55249411E+00  9.55249411E+00 -1.91049882E+01  0.00000000E+00  9.55249411E+00
  9.55249411E+00 -1.91049882E+01  0.00000000E+00  9.55249411E+00  9.55249411E+00
 -1.91049882E+01  0.00000000E+00  9.55249411E+00  9.55249411E+00 -1.91049882E+01
  0.00000000E+00  9.55249411E+00  9.55249411E+00 -1.91049882E+01  0.00000000E+00
  9.55249411E+00  9.55249411E+00 -1.91049882E+01  0.00000000E+00  9.55249411E+00
  9.55249411E+00 -1.91049882E+01  0.00000000E+00  9.55249411E+00  9.55249411E+00
 -1.91049882E+01  0.00000000E+00  9.55249411E+00  9.55249411E+00 -1.91049882E+01
  0.00000000E+00  9.55249411E+00  9.55249411E+00 -1.91049882E+01  0.00000000E+00
  9.55249411E+00  9.55249411E+00 -1.91049882E+01  0.00000000E+00  9.55249411E+00
  9.55249411E+00 -1.91049882E+01  0.00000000E+00  9.55249411E+00  9.55249411E+00
 -1.91049882E+01  0.00000000E+00  9.55249411E+00  9.55249411E+00 -1.91049882E+01
  0.00000000E+00  9.55249411E+00  9.55249411E+00 -1.91049882E+01  0.00000000E+00
  9.55249411E+00  9.55249411E+00 -1.91049882E+01  0.00000000E+00  9.55249411E+00
  9.55249411E+00 -1.91049882E+01  0.00000000E+00  9.55249411E+00  9.55249411E+00
 -1.91049882E+01  0.00000000E+00  9.55249411E+00  9.55249411E+00 -1.91049882E+01
  0.00000000E+00  9.55249411E+00  9.55249411E+00 -1.91049882E+01  0.00000000E+00
  9.55249411E+00  9.55249411E+00 -1.91049882E+01  0.00000000E+00  9.55249411E+00
  9.55249411E+00 -1.91049882E+01  0.00000000E+00  9.55249411E+00  9.55249411E+00
 -1.91049882E+01  0.00000000E+00  9.55249411E+00  9.55249411E+00 -1.91049882E+01
  0.00000000E+00  9.55249411E+00  9.55249411E+00 -1.91049882E+01  0.00000000E+00
  9.55249411E+00  9.55249411E+00 -1.91049882E+01  0.00000000E+00  9.55249411E+00
  9.55249411E+00 -1.91049882E+01  0.00000000E+00  9.55249411E+00  9.55249411E+00
 -1.91049882E+01  0.00000000E+00  9.55249411E+00  9.55249411E+00 -1.91049882E+01
  0.00000000E+00  9.55249411E+00  9.55249411E+00 -1.91049882E+01  0.00000000E+00
  9.55249411E+00  9.55249411E+00 -1.91049882E+01  0.00000000E+00  9.55249411E+00
  9.55249411E+00 -1.91049882E+01  0.00000000E+00  9.55249411E+00  9.55249411E+00
 -1.91049882E+01  0.00000000E+00  9.55249411E+00  9.55249411E+00 -1.91049882E+01
  0.00000000E+00  9.55249411E+00  9.55249411E+00 -1.91049882E+01  0.00000000E+00
  9.55249411E+00  9.55249411E+00 -1.91049882E+01  0.00000000E+00  9.55249411E+00
  9.55249411E+00 -1.91049882E+01  0.00000000E+00  9.55249411E+00  9.55249411E+00
 -1.91049882E+01  0.00000000E+00  9.55249411E+00  9.55249411E+00 -1.91049882E+01
  0.00000000E+00  9.55249411E+00  9.55249411E+00 -1.91049882E+01  0.00000000E+00
  9.55249411E+00  9.55249411E+00 -1.91049882E+01  0.00000000E+00  9.55249411E+00
  9.55249411E+00 -1.91049882E+01  0.00000000E+00  9.55249411E+00  9.55249411E+00
 -1.91049882E+01  0.00000000E+00  9.55249411E+00  9.55249411E+00 -1.91049882E+01
  0.00000000E+00  9.55249411E+00  9.55249411E+00 -1.91049882E+01  0.00000000E+00
  9.55249411E+00  9.55249411E+00 -1.91049882E+01  0.00000000E+00  9.55249411E+00
  9.55249411E+00 -1.91049882E+01  0.00000000E+00  9.55249411E+00  9.55249411E+00
 -1.91049882E+01  0.00000000E+00  9.55249411E+00  9.55249411E+00 -1.91049882E+01
  0.00000000E+00  9.55249411E+00  9.55249411E+00 -1.91049882E+01  0.00000000E+00
  9.55249411E+00  9.55249411E+00 -1.91049882E+01  0.00000000E+00  9.55249411E+00
  9.55249411E+00 -1.91049882E+01  0.00000000E+00  9.55249411E+00  9.55249411E+00
 -1.91049882E+01  0.00000000E+00  9.55249411E+00  9.55249411E+00 -1.91049882E+01
  0.00000000E+00  9.55249411E+00  9.55249411E+00 -1.91049882E+01  0.00000000E+00
  9.55249411E+00  9.55249411E+00 -1.91049882E+01  0.00000000E+00  9.55249411E+00
  9.55249411E+00 -1.91049882E+01  0.00000000E+00  9.55249411E+00  9.55249411E+00
 -1.91049882E+01  0.00000000E+00  9.55249411E+00  9.55249411E+00 -1.91049882E+01
  0.00000000E+00  9.55249411E+00  9.55249411E+00 -1.91049882E+01  0.00000000E+00
  9.55249411E+00  9.55249411E+00 -1.91049882E+01  0.00000000E+00  9.55249411E+00
  9.55249411E+00 -1.91049882E+01  0.00000000E+00  9.55249411E+00  9.55249411E+00
 -1.91049882E+01  0.00000000E+00  9.55249411E+00  9.55249411E+00 -1.91049882E+01
  0.00000000E+00  9.55249411E+00  9.55249411E+00 -1.91049882E+01  0.00000000E+00
  9.55249411E+00  9.55249411E+00 -1.91049882E+01  0.00000000E+00  9.55249411E+00
  9.55249411E+00 -1.91049882E+01  0.00000000E+00  9.55249411E+00  9.55249411E+00
 -1.91049882E+01  0.00000000E+00  9.55249411E+00  9.55249411E+00 -1.91049882E+01
  0.00000000E+00  9.55249411E+00  9.55249411E+00 -1.91049882E+01  0.00000000E+00
  9.55249411E+00  9.55249411E+00 -1.91049882E+01  0.00000000E+00  9.55249411E+00
  9.55249411E+00 -1.91049882E+01  0.00000000E+00  9.55249411E+00  9.55249411E+00
 -1.91049882E+01  0.00000000E+00  9.55249411E+00  9.55249411E+00 -1.91049882E+01
  0.00000000E+00  9.55249411E+00  9.55249411E+00 -1.91049882E+01  0.00000000E+00
  9.55249411E+00  9.55249411E+00 -1.91049882E+01  0.00000000E+00  9.55249411E+00
  9.55249411E+00 -1.91049882E+01  0.00000000E+00  9.55249411E+00  9.55249411E+00
 -1.91049882E+01  0.00000000E+00  9.55249411E+00  9.55249411E+00 -1.91049882E+01
  0.00000000E+00  9.55249411E+00  9.55249411E+00 -1.91049882E+01  0.00000000E+00
  9.55249411E+00  9.55249411E+00 -1.91049882E+01  0.00000000E+00  9.55249411E+00
  9.55249411E+00 -1.91049882E+01  0.00000000E+00  9.55249411E+00  9.55249411E+00
 -1.91049882E+01  0.00000000E+00  9.55249411E+00  9.55249411E+00 -1.91049882E+01
  0.00000000E+00  9.55249411E+00  9.55249411E+00 -1.91049882E+01  0.00000000E+00
  9.55249411E+00  9.55249411E+00 -1.91049882E+01  0.00000000E+00  9.55249411E+00
  9.55249411E+00 -1.91049882E+01  0.00000000E+00  9.55249411E+00  9.55249411E+00
 -1.91049882E+01  0.00000000E+00  9.55249411E+00  9.55249411E+00 -1.91049882E+01
  0.00000000E+00  9.55249411E+00  9.55249411E+00 -1.91049882E+01  0.00000000E+00
  9.55249411E+00  9.55249411E+00 -1.91049882E+01  0.00000000E+00  9.55249411E+00
  9.55249411E+00 -1.91049882E+01  0.00000000E+00  9.55249411E+00  9.55249411E+00
 -1.91049882E+01  0.00000000E+00  9.55249411E+00  9.55249411E+00 -1.91049882E+01
  0.00000000E+00  9.55249411E+00  9.55249411E+00 -1.91049882E+01  0.00000000E+00
  9.55249411E+00  9.55249411E+00 -1.91049882E+01  0.00000000E+00  9.55249411E+00
  9.55249411E+00 -1.91049882E+01  0.00000000E+00  9.55249411E+00  9.55249411E+00
 -1.91049882E+01  0.00000000E+00  9.55249411E+00  9.55249411E+00 -1.91049882E+01
  0.00000000E+00  9.55249411E+00  9.55249411E+00 -1.91049882E+01  0.00000000E+00
  9.55249411E+00  9.55249411E+00 -1.91049882E+01  0.00000000E+00  9.55249411E+00
  9.55249411E+00 -1.91049882E+01  0.00000000E+00  9.55249411E+00  9.55249411E+00
 -1.91049882E+01  0.00000000E+00  9.55249411E+00  9.55249411E+00 -1.91049882E+01
  0.00000000E+00  9.55249411E+00  9.55249411E+00 -1.91049882E+01  0.00000000E+00
  9.55249411E+00  9.55249411E+00 -1.91049882E+01  0.00000000E+00  9.55249411E+00
  9.55249411E+00 -1.91049882E+01  0.00000000E+00  9.55249411E+00  9.55249411E+00
 -1.91049882E+01  0.00000000E+00  9.55249411E+00  9.55249411E+00 -1.91049882E+01
%FLAG ATOMIC_NUMBER                                                             
%FORMAT(10I8)                                                                   
      11      17      11      17      11      17      11      17      11      17
       8       6       7       6       7       6       6       8       7       6
       6       7       6       7       1       1       1       1       1       1
       1       8       1       1       0       8       1       1       0       8
       1       1       0       8       1       1       0       8       1       1
       0       8       1       1       0       8       1       1       0       8
       1       1       0       8       1       1       0       8       1       1
       0       8       1       1       0       8       1       1       0       8
       1       1       0       8       1       1       0       8       1       1
       0       8       1       1       0       8       1       1       0       8
       1       1       0       8       1       1       0       8       1       1
       0       8       1       1       0       8       1       1       0       8
       1       1       0       8       1       1       0       8       1       1
       0       8       1       1       0       8       1       1       0       8
       1       1       0       8       1       1       0       8       1       1
       0       8       1       1       0       8       1       1       0       8
       1       1       0       8       1       1       0       8       1       1
       0       8       1       1       0       8       1       1       0       8
       1       1       0       8       1       1       0       8       1       1
       0       8       1       1       0       8       1       1       0       8
       1       1       0       8       1       1       0       8       1       1
       0       8       1       1       0       8       1       1       0       8
       1       1       0       8       1       1       0       8       1       1
       0       8       1       1       0       8       1       1       0       8
       1       1       0       8       1       1       0       8       1       1
       0       8       1       1       0       8       1       1       0       8
       1       1       0       8       1       1       0       8       1       1
       0       8       1       1       0       8       1       1       0       8
       1       1       0       8       1       1       0       8       1       1
       0       8       1       1       0       8       1       1       0       8
       1       1       0       8       1       1       0       8       1       1
       0       8       1       1       0       8       1       1       0       8
       1       1       0       8       1       1       0       8       1       1
       0       8       1       1       0       8       1       1       0       8
       1       1       0       8       1       1       0       8       1       1
       0       8       1       1       0       8       1       1       0       8
       1       1       0       8       1       1       0       8       1       1
       0       8       1       1       0       8       1       1       0       8
       1       1       0       8       1       1       0       8       1       1
       0       8       1       1       0       8       1       1       0       8
       1       1       0       8       1       1       0       8       1       1
       0       8       1       1       0       8       1       1       0       8
       1       1       0       8       1       1       0       8       1       1
       0       8       1       1       0       8       1       1       0       8
       1       1       0       8       1       1       0       8       1       1
       0       8       1       1       0       8       1       1       0       8
       1       1       0       8       1       1       0       8       1       1
       0       8       1       1       0       8       1       1       0       8
       1       1       0       8       1       1       0       8       1       1
       0       8       1       1       0       8       1       1       0       8
       1       1       0       8       1       1       0       8       1       1
       0       8       1       1       0       8       1       1       0       8
       1       1       0       8       1       1       0       8       1       1
       0       8       1       1       0       8       1       1       0       8
       1       1       0       8       1       1       0       8       1       1
       0       8       1       1       0       8       1       1       0       8
       1       1       0       8       1       1       0       8       1       1
       0       8       1       1       0       8       1       1       0       8
       1       1       0       8       1       1       0       8       1       1
       0       8       1       1       0       8       1       1       0       8
       1       1       0       8       1       1       0       8       1       1
       0       8       1       1       0       8       1       1       0       8
       1       1       0       8       1       1       0       8       1       1
       0       8       1       1       0       8       1       1       0       8
       1       1       0       8       1       1       0       8       1       1
       0       8       1       1       0       8       1       1       0       8
       1       1       0       8       1       1       0       8       1       1
       0       8       1       1       0       8       1       1       0       8
       1       1       0       8       1       1       0       8       1       1
       0       8       1       1       0       8       1       1       0       8
       1       1       0       8       1       1       0       8       1       1
       0       8       1       1       0       8       1       1       0       8
       1       1       0       8       1       1       0       8       1       1
       0       8       1       1       0       8       1       1       0       8
       1       1       0       8       1       1       0       8       1       1
       0       8       1       1       0       8       1       1       0       8
       1       1       0       8       1       1       0       8       1       1
       0       8       1       1       0       8       1       1       0       8
       1       1       0       8       1       1       0       8       1       1
       0       8       1       1       0       8       1       1       0       8
       1       1       0       8       1       1       0       8       1       1
       0       8       1       1       0       8       1       1       0       8
       1       1       0       8       1       1       0       8       1       1
       0       8       1       1       0       8       1       1       0       8
       1       1       0       8       1       1       0       8       1       1
       0       8       1       1       0       8       1       1       0       8
       1       1       0       8       1       1       0       8       1       1
       0       8       1       1       0       8       1       1       0       8
       1       1       0       8       1       1       0       8       1       1
       0       8       1       1       0       8       1       1       0       8
       1       1       0       8       1       1       0       8       1       1
       0       8       1       1       0       8       1       1       0       8
       1       1       0       8       1       1       0       8       1       1
       0       8       1       1       0       8       1       1       0       8
       1       1       0       8       1       1       0       8       1       1
       0       8       1       1       0       8       1       1       0       8
       1       1       0       8       1       1       0       8       1       1
       0       8       1       1       0       8       1       1       0       8
       1       1       0       8       1       1       0       8       1       1
       0       8       1       1       0       8       1       1       0       8
       1       1       0       8       1       1       0       8       1       1
       0       8       1       1       0       8       1       1       0       8
       1       1       0       8       1       1       0       8       1       1
       0       8       1       1       0       8       1       1       0       8
       1       1       0       8       1       1       0       8       1       1
       0       8       1       1       0       8       1       1       0       8
       1       1       0       8       1       1       0       8       1       1
       0       8       1       1       0       8       1       1       0       8
       1       1       0       8       1       1       0       8       1       1
       0       8       1       1       0       8       1       1       0       8
       1       1       0       8       1       1       0       8       1       1
       0       8       1       1       0       8       1       1       0       8
       1       1       0       8       1       1       0       8       1       1
       0       8       1       1       0       8       1       1       0       8
       1       1       0       8       1       1       0       8       1       1
       0       8       1       1       0       8       1       1       0       8
       1       1       0       8       1       1       0       8       1       1
       0       8       1       1       0       8       1       1       0       8
       1       1       0       8       1       1       0       8       1       1
       0       8       1       1       0       8       1       1       0       8
       1       1       0       8       1       1       0       8       1       1
       0       8       1       1       0       8       1       1       0       8
       1       1       0       8       1       1       0       8       1       1
       0       8       1       1       0       8       1       1       0       8
       1       1       0       8       1       1       0       8       1       1
       0       8       1       1       0       8       1       1       0       8
       1       1       0       8       1       1       0       8       1       1
       0       8       1       1       0       8       1       1       0       8
       1       1       0       8       1       1       0       8       1       1
       0       8       1       1       0       8       1       1       0       8
       1       1       0       8       1       1       0       8       1       1
       0       8       1       1       0       8       1       1       0       8
       1       1       0       8       1       1       0       8       1       1
       0       8       1       1       0       8       1       1       0       8
       1       1       0       8       1       1       0       8       1       1
       0       8       1       1       0       8       1       1       0       8
       1       1       0       8       1       1       0       8       1       1
       0       8       1       1       0       8       1       1       0       8
       1       1       0       8       1       1       0       8       1       1
       0       8       1       1       0       8       1       1       0       8
       1       1       0       8       1       1       0       8       1       1
       0       8       1       1       0       8       1       1       0       8
       1       1       0       8       1       1       0       8       1       1
       0       8       1       1       0       8       1       1       0       8
       1       1       0       8       1       1       0       8       1       1
       0       8       1       1       0       8       1       1       0       8
       1       1       0       8       1       1       0       8       1       1
       0       8       1       1       0       8       1       1       0       8
       1       1       0       8       1       1       0       8       1       1
       0       8       1       1       0       8       1       1       0       8
       1       1       0       8       1       1       0       8       1       1
       0       8       1       1       0       8       1       1       0       8
       1       1       0       8       1       1       0       8       1       1
       0       8       1       1       0       8       1       1       0       8
       1       1       0       8       1       1       0       8       1       1
       0       8       1       1       0       8       1       1       0       8
       1       1       0       8       1       1       0       8       1       1
       0       8       1       1       0       8       1       1       0       8
       1       1       0       8       1       1       0       8       1       1
       0       8       1       1       0       8       1       1       0       8
       1       1       0       8       1       1       0       8       1       1
       0       8       1       1       0       8       1       1       0       8
       1       1       0       8       1       1       0       8       1       1
       0       8       1       1       0       8       1       1       0       8
       1       1       0       8       1       1       0       8       1       1
       0       8       1       1       0       8       1       1       0       8
       1       1       0       8       1       1       0       8       1       1
       0       8       1       1       0       8       1       1       0       8
       1       1       0       8       1       1       0       8       1       1
       0       8       1       1       0       8       1       1       0       8
       1       1       0       8       1       1       0       8       1       1
       0       8       1       1       0       8       1       1       0       8
       1       1       0       8       1       1       0       8       1       1
       0       8       1       1       0       8       1       1       0       8
       1       1       0       8       1       1       0       8       1       1
       0       8       1       1       0       8       1       1       0       8
       1       1       0       8       1       1       0       8       1       1
       0       8       1       1       0       8       1       1       0       8
       1       1       0       8       1       1       0       8       1       1
       0       8       1       1       0       8       1       1       0       8
       1       1       0       8       1       1       0       8       1       1
       0       8       1       1       0       8       1       1       0       8
       1       1       0       8       1       1       0       8       1       1
       0       8       1       1       0       8       1       1       0       8
       1       1       0       8       1       1       0       8       1       1
       0       8       1       1       0       8       1       1       0       8
       1       1       0       8       1       1       0       8       1       1
       0       8       1       1       0       8       1       1       0       8
       1       1       0       8       1       1       0       8       1       1
       0       8       1       1       0       8       1       1       0       8
       1       1       0       8       1       1       0       8       1       1
       0       8       1       1       0       8       1       1       0       8
       1       1       0       8       1       1       0       8       1       1
       0       8       1       1       0       8       1       1       0       8
       1       1       0       8       1       1       0       8       1       1
       0       8       1       1       0       8       1       1       0       8
       1       1       0       8       1       1       0       8       1       1
       0       8       1       1       0       8       1       1       0       8
       1       1       0       8       1       1       0       8       1       1
       0       8       1       1       0       8       1       1       0       8
       1       1       0       8       1       1       0       8       1       1
       0       8       1       1       0       8       1       1       0       8
       1       1       0       8       1       1       0       8       1       1
       0       8       1       1       0       8       1       1       0       8
       1       1       0       8       1       1       0       8       1       1
       0       8       1       1       0       8       1       1       0       8
       1       1       0       8       1       1       0       8       1       1
       0       8       1       1       0       8       1       1       0       8
       1       1       0       8       1       1       0       8       1       1
       0       8       1       1       0       8       1       1       0       8
       1       1       0       8       1       1       0       8       1       1
       0       8       1       1       0       8       1       1       0       8
       1       1       0       8       1       1       0       8       1       1
       0       8       1       1       0       8       1       1       0       8
       1       1       0       8       1       1       0       8       1       1
       0       8       1       1       0       8       1       1       0       8
       1       1       0       8       1       1       0       8       1       1
       0       8       1       1       0       8       1       1       0       8
       1       1       0       8       1       1       0       8       1       1
       0       8       1       1       0       8       1       1       0       8
       1       1       0       8       1       1       0       8       1       1
       0       8       1       1       0       8       1       1       0       8
       1       1       0       8       1       1       0       8       1       1
       0       8       1       1       0       8       1       1       0       8
       1       1       0       8       1       1       0       8       1       1
       0       8       1       1       0       8       1       1       0       8
       1       1       0       8       1       1       0       8       1       1
       0       8       1       1       0       8       1       1       0       8
       1       1       0       8       1       1       0       8       1       1
       0       8       1       1       0       8       1       1       0       8
       1       1       0       8       1       1       0       8       1       1
       0       8       1       1       0       8       1       1       0       8
       1       1       0       8       1       1       0       8       1       1
       0       8       1       1       0       8       1       1       0       8
       1       1       0       8       1       1       0       8       1       1
       0       8       1       1       0       8       1       1       0       8
       1       1       0       8       1       1       0       8       1       1
       0       8       1       1       0       8       1       1       0       8
       1       1       0       8       1       1       0       8       1       1
       0       8       1       1       0       8       1       1       0       8
       1       1       0       8       1       1       0       8       1       1
       0       8       1       1       0       8       1       1       0       8
       1       1       0       8       1       1       0       8       1       1
       0       8       1       1       0       8       1       1       0       8
       1       1       0       8       1       1       0       8       1       1
       0       8       1       1       0       8       1       1       0       8
       1       1       0       8       1       1       0       8       1       1
       0       8       1       1       0       8       1       1       0       8
       1       1       0       8       1       1       0       8       1       1
       0       8       1       1       0       8       1       1       0       8
       1       1       0       8       1       1       0       8       1       1
       0       8       1       1       0       8       1       1       0       8
       1       1       0       8       1       1       0       8       1       1
       0       8       1       1       0       8       1       1       0       8
       1       1       0       8       1       1       0       8       1       1
       0       8       1       1       0       8       1       1       0       8
       1       1       0       8       1       1       0       8       1       1
       0       8       1       1       0       8       1       1       0       8
       1       1       0       8       1       1       0       8       1       1
       0       8       1       1       0       8       1       1       0       8
       1       1       0       8       1       1       0       8       1       1
       0       8       1       1       0       8       1       1       0       8
       1       1       0       8       1       1       0       8       1       1
       0       8       1       1       0       8       1       1       0       8
       1       1       0       8       1       1       0       8       1       1
       0       8       1       1       0       8       1       1       0       8
       1       1       0       8       1       1       0       8       1       1
       0       8       1       1       0       8       1       1       0       8
       1       1       0       8       1       1       0       8       1       1
       0       8       1       1       0       8       1       1       0       8
       1       1       0       8       1       1       0       8       1       1
       0       8       1       1       0       8       1       1       0       8
       1       1       0       8       1       1       0       8       1       1
       0       8       1       1       0       8       1       1       0       8
       1       1       0       8       1       1       0       8       1       1
       0       8       1       1       0       8       1       1       0       8
       1       1       0       8       1       1       0       8       1       1
       0       8       1       1       0       8       1       1       0       8
       1       1       0       8       1       1       0       8       1       1
       0       8       1       1       0       8       1       1       0       8
       1       1       0       8       1       1       0       8       1       1
       0       8       1       1       0       8       1       1       0       8
       1       1       0       8       1       1       0       8       1       1
       0       8       1       1       0       8       1       1       0       8
       1       1       0       8       1       1       0       8       1       1
       0       8       1       1       0       8       1       1       0       8
       1       1       0       8       1       1       0       8       1       1
       0       8       1       1       0       8       1       1       0       8
       1       1       0       8       1       1       0       8       1       1
       0       8       1       1       0       8       1       1       0       8
       1       1       0       8       1       1       0       8       1       1
       0       8       1       1       0       8       1       1       0       8
       1       1       0       8       1       1       0       8       1       1
       0       8       1       1       0       8       1       1       0       8
       1       1       0       8       1       1       0       8       1       1
       0       8       1       1       0       8       1       1       0       8
       1       1       0       8       1       1       0       8       1       1
       0       8       1       1       0       8       1       1       0       8
       1       1       0       8       1       1       0       8       1       1
       0       8       1       1       0       8       1       1       0       8
       1       1       0       8       1       1       0       8       1       1
       0       8       1       1       0       8       1       1       0       8
       1       1       0       8       1       1       0       8       1       1
       0       8       1       1       0       8       1       1       0       8
       1       1       0       8       1       1       0       8       1       1
       0       8       1       1       0       8       1       1       0       8
       1       1       0       8       1       1       0       8       1       1
       0       8       1       1       0       8       1       1       0       8
       1       1       0       8       1       1       0       8       1       1
       0       8       1       1       0       8       1       1       0       8
       1       1       0       8       1       1       0       8       1       1
       0       8       1       1       0       8       1       1       0       8
       1       1       0       8       1       1       0       8       1       1
       0       8       1       1       0       8       1       1       0       8
       1       1       0       8       1       1       0       8       1       1
       0       8       1       1       0       8       1       1       0       8
       1       1       0       8       1       1       0       8       1       1
       0       8       1       1       0       8       1       1       0       8
       1       1       0       8       1       1       0       8       1       1
       0       8       1       1       0       8       1       1       0       8
       1       1       0       8       1       1       0       8       1       1
       0       8       1       1       0       8       1       1       0       8
       1       1       0       8       1       1       0       8       1       1
       0       8       1       1       0       8       1       1       0       8
       1       1       0       8       1       1       0       8       1       1
       0       8       1       1       0       8       1       1       0       8
       1       1       0       8       1       1       0       8       1       1
       0       8       1       1       0       8       1       1       0       8
       1       1       0       8       1       1       0       8       1       1
       0       8       1       1       0       8       1       1       0       8
       1       1       0       8       1       1       0       8       1       1
       0       8       1       1       0       8       1       1       0       8
       1       1       0       8       1       1       0       8       1       1
       0       8       1       1       0       8       1       1       0       8
       1       1       0       8       1       1       0       8       1       1
       0       8       1       1       0       8       1       1       0       8
       1       1       0       8       1       1       0       8       1       1
       0       8       1       1       0       8       1       1       0       8
       1       1       0       8       1       1       0       8       1       1
       0       8       1       1       0       8       1       1       0       8
       1       1       0       8       1       1       0       8       1       1
       0       8       1       1       0       8       1       1       0       8
       1       1       0       8       1       1       0       8       1       1
       0       8       1       1       0       8       1       1       0       8
       1       1       0       8       1       1       0       8       1       1
       0       8       1       1       0       8       1       1       0       8
       1       1       0       8       1       1       0       8       1       1
       0       8       1       1       0       8       1       1       0       8
       1       1       0       8       1       1       0       8       1       1
       0       8       1       1       0       8       1       1       0       8
       1       1       0       8       1       1       0       8       1       1
       0       8       1       1       0       8       1       1       0       8
       1       1       0       8       1       1       0       8       1       1
       0       8       1       1       0       8       1       1       0       8
       1       1       0       8       1       1       0       8       1       1
       0       8       1       1       0       8       1       1       0       8
       1       1       0       8       1       1       0       8       1       1
       0       8       1       1       0       8       1       1       0       8
       1       1       0       8       1       1       0       8       1       1
       0       8       1       1       0       8       1       1       0       8
       1       1       0       8       1       1       0       8       1       1
       0       8       1       1       0       8       1       1       0       8
       1       1       0       8       1       1       0       8       1       1
       0       8       1       1       0       8       1       1       0       8
       1       1       0       8       1       1       0       8       1       1
       0       8       1       1       0       8       1       1       0       8
       1       1       0       8       1       1       0       8       1       1
       0       8       1       1       0       8       1       1       0       8
       1       1       0       8       1       1       0       8       1       1
       0       8       1       1       0       8       1       1       0       8
       1       1       0       8       1       1       0       8       1       1
       0       8       1       1       0       8       1       1       0       8
       1       1       0       8       1       1       0       8       1       1
       0       8       1       1       0       8       1       1       0       8
       1       1       0       8       1       1       0       8       1       1
       0       8       1       1       0       8       1       1       0       8
       1       1       0       8       1       1       0       8       1       1
       0       8       1       1       0       8       1       1       0       8
       1       1       0       8       1       1       0       8       1       1
       0       8       1       1       0       8       1       1       0       8
       1       1       0       8       1       1       0       8       1       1
       0       8       1       1       0       8       1       1       0       8
       1       1       0       8       1       1       0       8       1       1
       0       8       1       1       0       8       1       1       0       8
       1       1       0       8       1       1       0       8       1       1
       0       8       1       1       0       8       1       1       0       8
       1       1       0       8       1       1       0       8       1       1
       0       8       1       1       0       8       1       1       0       8
       1       1       0       8       1       1       0       8       1       1
       0       8       1       1       0       8       1       1       0       8
       1       1       0       8       1       1       0       8       1       1
       0       8       1       1       0       8       1       1       0       8
       1       1       0       8       1       1       0       8       1       1
       0       8       1       1       0       8       1       1       0       8
       1       1       0       8       1       1       0       8       1       1
       0       8       1       1       0       8       1       1       0       8
       1       1       0       8       1       1       0       8       1       1
       0       8       1       1       0       8       1       1       0       8
       1       1       0       8       1       1       0       8       1       1
       0       8       1       1       0       8       1       1       0       8
       1       1       0       8       1       1       0       8       1       1
       0       8       1       1       0       8       1       1       0       8
       1       1       0       8       1       1       0       8       1       1
       0       8       1       1       0       8       1       1       0       8
       1       1       0       8       1       1       0       8       1       1
       0       8       1       1       0       8       1       1       0       8
       1       1       0       8       1       1       0       8       1       1
       0       8       1       1       0       8       1       1       0       8
       1       1       0       8       1       1       0       8       1       1
       0       8       1       1       0       8       1       1       0       8
       1       1       0       8       1       1       0       8       1       1
       0       8       1       1       0       8       1       1       0       8
       1       1       0       8       1       1       0       8       1       1
       0       8       1       1       0       8       1       1       0       8
       1       1       0       8       1       1       0       8       1       1
       0       8       1       1       0       8       1       1       0       8
       1       1       0       8       1       1       0       8       1       1
       0       8       1       1       0       8       1       1       0       8
       1       1       0       8       1       1       0       8       1       1
       0       8       1       1       0       8       1       1       0       8
       1       1       0       8       1       1       0       8       1       1
       0       8       1       1       0       8       1       1       0       8
       1       1       0       8       1       1       0       8       1       1
       0       8       1       1       0       8       1       1       0       8
       1       1       0       8       1       1       0       8       1       1
       0       8       1       1       0       8       1       1       0       8
       1       1       0       8       1       1       0       8       1       1
       0       8       1       1       0       8       1       1       0       8
       1       1       0       8       1       1       0       8       1       1
       0       8       1       1       0       8       1       1       0       8
       1       1       0       8       1       1       0       8       1       1
       0       8       1       1       0       8       1       1       0       8
       1       1       0       8       1       1       0       8       1       1
       0       8       1       1       0       8       1       1       0       8
       1       1       0       8       1       1       0       8       1       1
       0       8       1       1       0       8       1       1       0       8
       1       1       0       8       1       1       0       8       1       1
       0       8       1       1       0       8       1       1       0       8
       1       1       0       8       1       1       0       8       1       1
       0       8       1       1       0       8       1       1       0       8
       1       1       0       8       1       1       0       8       1       1
       0       8       1       1       0       8       1       1       0       8
       1       1       0       8       1       1       0       8       1       1
       0       8       1       1       0       8       1       1       0       8
       1       1       0       8       1       1       0       8       1       1
       0       8       1       1       0       8       1       1       0       8
       1       1       0       8       1       1       0       8       1       1
       0       8       1       1       0       8       1       1       0       8
       1       1       0       8       1       1       0       8       1       1
       0       8       1       1       0       8       1       1       0       8
       1       1       0       8       1       1       0       8       1       1
       0       8       1       1       0       8       1       1       0       8
       1       1       0       8       1       1       0       8       1       1
       0       8       1       1       0       8       1       1       0       8
       1       1       0       8       1       1       0       8       1       1
       0       8       1       1       0       8       1       1       0       8
       1       1       0       8       1       1       0       8       1       1
       0       8       1       1       0       8       1       1       0       8
       1       1       0       8       1       1       0       8       1       1
       0       8       1       1       0       8       1       1       0       8
       1       1       0       8       1       1       0       8       1       1
       0       8       1       1       0       8       1       1       0       8
       1       1       0       8       1       1       0       8       1       1
       0       8       1       1       0       8       1       1       0       8
       1       1       0       8       1       1       0       8       1       1
       0       8       1       1       0       8       1       1       0       8
       1       1       0       8       1       1       0       8       1       1
       0       8       1       1       0       8       1       1       0       8
       1       1       0       8       1       1       0       8       1       1
       0       8       1       1       0       8       1       1       0       8
       1       1       0       8       1       1       0       8       1       1
       0       8       1       1       0       8       1       1       0       8
       1       1       0       8       1       1       0       8       1       1
       0       8       1       1       0       8       1       1       0       8
       1       1       0       8       1       1       0       8       1       1
       0       8       1       1       0       8       1       1       0       8
       1       1       0       8       1       1       0       8       1       1
       0       8       1       1       0       8       1       1       0       8
       1       1       0       8       1       1       0       8       1       1
       0       8       1       1       0       8       1       1       0       8
       1       1       0       8       1       1       0       8       1       1
       0       8       1       1       0       8       1       1       0       8
       1       1       0       8       1       1       0       8       1       1
       0       8       1       1       0       8       1       1       0       8
       1       1       0       8       1       1       0       8       1       1
       0       8       1       1       0       8       1       1       0       8
       1       1       0       8       1       1       0       8       1       1
       0       8       1       1       0       8       1       1       0       8
       1       1       0       8       1       1       0       8       1       1
       0       8       1       1       0       8       1       1       0       8
       1       1       0       8       1       1       0       8       1       1
       0       8       1       1       0       8       1       1       0       8
       1       1       0       8       1       1       0       8       1       1
       0       8       1       1       0       8       1       1       0       8
       1       1       0       8       1       1       0       8       1       1
       0       8       1       1       0       8       1       1       0       8
       1       1       0       8       1       1       0       8       1       1
       0       8       1       1       0       8       1       1       0       8
       1       1       0       8       1       1       0       8       1       1
       0       8       1       1       0       8       1       1       0       8
       1       1       0       8       1       1       0       8       1       1
       0       8       1       1       0       8       1       1       0       8
       1       1       0       8       1       1       0       8       1       1
       0       8       1       1       0       8       1       1       0       8
       1       1       0       8       1       1       0       8       1       1
       0       8       1       1       0       8       1       1       0       8
       1       1       0       8       1       1       0       8       1       1
       0       8       1       1       0       8       1       1       0       8
       1       1       0       8       1       1       0       8       1       1
       0       8       1       1       0       8       1       1       0       8
       1       1       0       8       1       1       0       8       1       1
       0       8       1       1       0       8       1       1       0       8
       1       1       0       8       1       1       0       8       1       1
       0       8       1       1       0       8       1       1       0       8
       1       1       0       8       1       1       0       8       1       1
       0       8       1       1       0       8       1       1       0       8
       1       1       0       8       1       1       0       8       1       1
       0       8       1       1       0       8       1       1       0       8
       1       1       0       8       1       1       0       8       1       1
       0       8       1       1       0       8       1       1       0       8
       1       1       0       8       1       1       0       8       1       1
       0       8       1       1       0       8       1       1       0       8
       1       1       0       8       1       1       0       8       1       1
       0       8       1       1       0       8       1       1       0       8
       1       1       0       8       1       1       0       8       1       1
       0       8       1       1       0       8       1       1       0       8
       1       1       0       8       1       1       0       8       1       1
       0       8       1       1       0       8       1       1       0       8
       1       1       0       8       1       1       0       8       1       1
       0       8       1       1       0       8       1       1       0       8
       1       1       0       8       1       1       0       8       1       1
       0       8       1       1       0       8       1       1       0       8
       1       1       0       8       1       1       0       8       1       1
       0       8       1       1       0       8       1       1       0       8
       1       1       0       8       1       1       0       8       1       1
       0       8       1       1       0       8       1       1       0       8
       1       1       0       8       1       1       0       8       1       1
       0       8       1       1       0       8       1       1       0       8
       1       1       0       8       1       1       0       8       1       1
       0       8       1       1       0       8       1       1       0       8
       1       1       0       8       1       1       0       8       1       1
       0       8       1       1       0       8       1       1       0       8
       1       1       0       8       1       1       0       8       1       1
       0       8       1       1       0       8       1       1       0       8
       1       1       0       8       1       1       0       8       1       1
       0       8       1       1       0       8       1       1       0       8
       1       1       0       8       1       1       0       8       1       1
       0       8       1       1       0       8       1       1       0       8
       1       1       0       8       1       1       0       8       1       1
       0       8       1       1       0       8       1       1       0       8
       1       1       0       8       1       1       0       8       1       1
       0       8       1       1       0       8       1       1       0       8
       1       1       0       8       1       1       0       8       1       1
       0       8       1       1       0       8       1       1       0       8
       1       1       0       8       1       1       0       8       1       1
       0       8       1       1       0       8       1       1       0       8
       1       1       0       8       1       1       0       8       1       1
       0       8       1       1       0       8       1       1       0       8
       1       1       0       8       1       1       0       8       1       1
       0       8       1       1       0       8       1       1       0       8
       1       1       0       8       1       1       0       8       1       1
       0       8       1       1       0       8       1       1       0       8
       1       1       0       8       1       1       0       8       1       1
       0       8       1       1       0       8       1       1       0       8
       1       1       0       8       1       1       0       8       1       1
       0       8       1       1       0       8       1       1       0       8
       1       1       0       8       1       1       0       8       1       1
       0       8       1       1       0       8       1       1       0       8
       1       1       0       8       1       1       0       8       1       1
       0       8       1       1       0       8       1       1       0       8
       1       1       0       8       1       1       0       8       1       1
       0       8       1       1       0       8       1       1       0       8
       1       1       0       8       1       1       0       8       1       1
       0       8       1       1       0       8       1       1       0       8
       1       1       0       8       1       1       0       8       1       1
       0       8       1       1       0       8       1       1       0       8
       1       1       0       8       1       1       0       8       1       1
       0       8       1       1       0       8       1       1       0       8
       1       1       0       8       1       1       0       8       1       1
       0       8       1       1       0       8       1       1       0       8
       1       1       0       8       1       1       0       8       1       1
       0       8       1       1       0       8       1       1       0       8
       1       1       0       8       1       1       0       8       1       1
       0       8       1       1       0       8       1       1       0       8
       1       1       0       8       1       1       0       8       1       1
       0       8       1       1       0       8       1       1       0       8
       1       1       0       8       1       1       0       8       1       1
       0       8       1       1       0       8       1       1       0       8
       1       1       0       8       1       1       0       8       1       1
       0       8       1       1       0       8       1       1       0       8
       1       1       0       8       1       1       0       8       1       1
       0       8       1       1       0       8       1       1       0       8
       1       1       0       8       1       1       0       8       1       1
       0       8       1       1       0       8       1       1       0       8
       1       1       0       8       1       1       0       8       1       1
       0       8       1       1       0       8       1       1       0       8
       1       1       0       8       1       1       0       8       1       1
       0       8       1       1       0       8       1       1       0       8
       1       1       0       8       1       1       0       8       1       1
       0       8       1       1       0       8       1       1       0       8
       1       1       0       8       1       1       0       8       1       1
       0       8       1       1       0       8       1       1       0       8
       1       1       0       8       1       1       0       8       1       1
       0       8       1       1       0       8       1       1       0       8
       1       1       0       8       1       1       0       8       1       1
       0       8       1       1       0       8       1       1       0       8
       1       1       0       8       1       1       0       8       1       1
       0       8       1       1       0       8       1       1       0       8
       1       1       0       8       1       1       0       8       1       1
       0       8       1       1       0       8       1       1       0       8
       1       1       0       8       1       1       0       8       1       1
       0       8       1       1       0       8       1       1       0       8
       1       1       0       8       1       1       0       8       1       1
       0       8       1       1       0       8       1       1       0       8
       1       1       0       8       1       1       0       8       1       1
       0       8       1       1       0       8       1       1       0       8
       1       1       0       8       1       1       0       8       1       1
       0       8       1       1       0       8       1       1       0       8
       1       1       0       8       1       1       0       8       1       1
       0       8       1       1       0       8       1       1       0       8
       1       1       0       8       1       1       0       8       1       1
       0       8       1       1       0       8       1       1       0       8
       1       1       0       8       1       1       0       8       1       1
       0       8       1       1       0       8       1       1       0       8
       1       1       0       8       1       1       0       8       1       1
       0       8       1       1       0       8       1       1       0       8
       1       1       0       8       1       1       0       8       1       1
       0       8       1       1       0       8       1       1       0       8
       1       1       0       8       1       1       0       8       1       1
       0       8       1       1       0       8       1       1       0       8
       1       1       0       8       1       1       0       8       1       1
       0       8       1       1       0       8       1       1       0       8
       1       1       0       8       1       1       0       8       1       1
       0       8       1       1       0       8       1       1       0       8
       1       1       0       8       1       1       0       8       1       1
       0       8       1       1       0       8       1       1       0       8
       1       1       0       8       1       1       0       8       1       1
       0       8       1       1       0       8       1       1       0       8
       1       1       0       8       1       1       0       8       1       1
       0       8       1       1       0       8       1       1       0       8
       1       1       0       8       1       1       0       8       1       1
       0       8       1       1       0       8       1       1       0       8
       1       1       0       8       1       1       0       8       1       1
       0       8       1       1       0       8       1       1       0       8
       1       1       0       8       1       1       0       8       1       1
       0       8       1       1       0       8       1       1       0       8
       1       1       0       8       1       1       0       8       1       1
       0       8       1       1       0       8       1       1       0       8
       1       1       0       8       1       1       0       8       1       1
       0       8       1       1       0       8       1       1       0       8
       1       1       0       8       1       1       0       8       1       1
       0       8       1       1       0       8       1       1       0       8
       1       1       0       8       1       1       0       8       1       1
       0       8       1       1       0       8       1       1       0       8
       1       1       0       8       1       1       0       8       1       1
       0       8       1       1       0       8       1       1       0       8
       1       1       0       8       1       1       0       8       1       1
       0       8       1       1       0       8       1       1       0       8
       1       1       0       8       1       1       0       8       1       1
       0       8       1       1       0       8       1       1       0       8
       1       1       0       8       1       1       0       8       1       1
       0       8       1       1       0       8       1       1       0       8
       1       1       0       8       1       1       0       8       1       1
       0       8       1       1       0       8       1       1       0       8
       1       1       0       8       1       1       0       8       1       1
       0       8       1       1       0       8       1       1       0       8
       1       1       0       8       1       1       0       8       1       1
       0       8       1       1       0       8       1       1       0       8
       1       1       0       8       1       1       0       8       1       1
       0       8       1       1       0       8       1       1       0       8
       1       1       0       8       1       1       0       8       1       1
       0       8       1       1       0       8       1       1       0       8
       1       1       0       8       1       1       0       8       1       1
       0       8       1       1       0       8       1       1       0       8
       1       1       0       8       1       1       0       8       1       1
       0       8       1       1       0       8       1       1       0       8
       1       1       0       8       1       1       0       8       1       1
       0       8       1       1       0       8       1       1       0       8
       1       1       0       8       1       1       0       8       1       1
       0       8       1       1       0       8       1       1       0       8
       1       1       0       8       1       1       0       8       1       1
       0       8       1       1       0       8       1       1       0       8
       1       1       0       8       1       1       0       8       1       1
       0       8       1       1       0       8       1       1       0       8
       1       1       0       8       1       1       0       8       1       1
       0       8       1       1       0       8       1       1       0       8
       1       1       0       8       1       1       0       8       1       1
       0       8       1       1       0       8       1       1       0       8
       1       1       0       8       1       1       0       8       1       1
       0       8       1       1       0       8       1       1       0       8
       1       1       0       8       1       1       0       8       1       1
       0       8       1       1       0       8       1       1       0       8
       1       1       0       8       1       1       0       8       1       1
       0       8       1       1       0       8       1       1       0       8
       1       1       0       8       1       1       0       8       1       1
       0       8       1       1       0       8       1       1       0       8
       1       1       0       8       1       1       0       8       1       1
       0       8       1       1       0       8       1       1       0       8
       1       1       0       8       1       1       0       8       1       1
       0       8       1       1       0       8       1       1       0       8
       1       1       0       8       1       1       0       8       1       1
       0       8       1       1       0       8       1       1       0       8
       1       1       0       8       1       1       0       8       1       1
       0       8       1       1       0       8       1       1       0       8
       1       1       0       8       1       1       0       8       1       1
       0       8       1       1       0       8       1       1       0       8
       1       1       0       8       1       1       0       8       1       1
       0       8       1       1       0       8       1       1       0       8
       1       1       0       8       1       1       0       8       1       1
       0       8       1       1       0       8       1       1       0       8
       1       1       0       8       1       1       0       8       1       1
       0       8       1       1       0       8       1       1       0       8
       1       1       0       8       1       1       0       8       1       1
       0       8       1       1       0       8       1       1       0       8
       1       1       0       8       1       1       0       8       1       1
       0       8       1       1       0       8       1       1       0       8
       1       1       0       8       1       1       0       8       1       1
       0       8       1       1       0       8       1       1       0       8
       1       1       0       8       1       1       0       8       1       1
       0       8       1       1       0       8       1       1       0       8
       1       1       0       8       1       1       0       8       1       1
       0       8       1       1       0       8       1       1       0       8
       1       1       0       8       1       1       0       8       1       1
       0       8       1       1       0       8       1       1       0       8
       1       1       0       8       1       1       0       8       1       1
       0       8       1       1       0       8       1       1       0       8
       1       1       0       8       1       1       0       8       1       1
       0       8       1       1       0       8       1       1       0       8
       1       1       0       8       1       1       0       8       1       1
       0       8       1       1       0       8       1       1       0       8
       1       1       0       8       1       1       0       8       1       1
       0       8       1       1       0       8       1       1       0       8
       1       1       0       8       1       1       0       8       1       1
       0       8       1       1       0       8       1       1       0       8
       1       1       0       8       1       1       0       8       1       1
       0       8       1       1       0       8       1       1       0       8
       1       1       0       8       1       1       0       8       1       1
       0       8       1       1       0       8       1       1       0       8
       1       1       0       8       1       1       0       8       1       1
       0       8       1       1       0       8       1       1       0       8
       1       1       0       8       1       1       0       8       1       1
       0       8       1       1       0       8       1       1       0       8
       1       1       0       8       1       1       0       8       1       1
       0       8       1       1       0       8       1       1       0       8
       1       1       0       8       1       1       0       8       1       1
       0       8       1       1       0       8       1       1       0       8
       1       1       0       8       1       1       0       8       1       1
       0       8       1       1       0       8       1       1       0       8
       1       1       0       8       1       1       0       8       1       1
       0       8       1       1       0       8       1       1       0       8
       1       1       0       8       1       1       0       8       1       1
       0       8       1       1       0       8       1       1       0       8
       1       1       0       8       1       1       0       8       1       1
       0       8       1       1       0       8       1       1       0       8
       1       1       0       8       1       1       0       8       1       1
       0       8       1       1       0       8       1       1       0       8
       1       1       0       8       1       1       0       8       1       1
       0       8       1       1       0       8       1       1       0       8
       1       1       0       8       1       1       0       8       1       1
       0       8       1       1       0       8       1       1       0       8
       1       1       0       8       1       1       0       8       1       1
       0       8       1       1       0       8       1       1       0       8
       1       1       0       8       1       1       0       8       1       1
       0       8       1       1       0       8       1       1       0       8
       1       1       0       8       1       1       0       8       1       1
       0       8       1       1       0       8       1       1       0       8
       1       1       0       8       1       1       0       8       1       1
       0       8       1       1       0       8       1       1       0       8
       1       1       0       8       1       1       0       8       1       1
       0       8       1       1       0       8       1       1       0       8
       1       1       0       8       1       1       0       8       1       1
       0       8       1       1       0       8       1       1       0       8
       1       1       0       8       1       1       0       8       1       1
       0       8       1       1       0       8       1       1       0       8
       1       1       0       8       1       1       0       8       1       1
       0       8       1       1       0       8       1       1       0       8
       1       1       0       8       1       1       0       8       1       1
       0       8       1       1       0       8       1       1       0       8
       1       1       0       8       1       1       0       8       1       1
       0       8       1       1       0       8       1       1       0       8
       1       1       0       8       1       1       0       8       1       1
       0       8       1       1       0       8       1       1       0       8
       1       1       0       8       1       1       0       8       1       1
       0       8       1       1       0       8       1       1       0       8
       1       1       0       8       1       1       0       8       1       1
       0       8       1       1       0       8       1       1       0       8
       1       1       0       8       1       1       0       8       1       1
       0       8       1       1       0       8       1       1       0       8
       1       1       0       8       1       1       0       8       1       1
       0       8       1       1       0       8       1       1       0       8
       1       1       0       8       1       1       0       8       1       1
       0       8       1       1       0       8       1       1       0       8
       1       1       0       8       1       1       0       8       1       1
       0       8       1       1       0       8       1       1       0       8
       1       1       0       8       1       1       0       8       1       1
       0       8       1       1       0       8       1       1       0       8
       1       1       0       8       1       1       0       8       1       1
       0       8       1       1       0       8       1       1       0       8
       1       1       0       8       1       1       0       8       1       1
       0       8       1       1       0       8       1       1       0       8
       1       1       0       8       1       1       0       8       1       1
       0       8       1       1       0       8       1       1       0       8
       1       1       0       8       1       1       0       8       1       1
       0       8       1       1       0       8       1       1       0       8
       1       1       0       8       1       1       0       8       1       1
       0       8       1       1       0       8       1       1       0       8
       1       1       0       8       1       1       0       8       1       1
       0       8       1       1       0       8       1       1       0       8
       1       1       0       8       1       1       0       8       1       1
       0       8       1       1       0       8       1       1       0       8
       1       1       0       8       1       1       0       8       1       1
       0       8       1       1       0       8       1       1       0       8
       1       1       0       8       1       1       0       8       1       1
       0       8       1       1       0       8       1       1       0       8
       1       1       0       8       1       1       0       8       1       1
       0       8       1       1       0       8       1       1       0       8
       1       1       0       8       1       1       0       8       1       1
       0       8       1       1       0       8       1       1       0       8
       1       1       0       8       1       1       0       8       1       1
       0       8       1       1       0       8       1       1       0       8
       1       1       0       8       1       1       0       8       1       1
       0       8       1       1       0       8       1       1       0       8
       1       1       0       8       1       1       0       8       1       1
       0       8       1       1       0       8       1       1       0       8
       1       1       0       8       1       1       0       8       1       1
       0       8       1       1       0       8       1       1       0       8
       1       1       0       8       1       1       0       8       1       1
       0       8       1       1       0       8       1       1       0       8
       1       1       0       8       1       1       0       8       1       1
       0       8       1       1       0       8       1       1       0       8
       1       1       0       8       1       1       0       8       1       1
       0       8       1       1       0       8       1       1       0       8
       1       1       0       8       1       1       0       8       1       1
       0       8       1       1       0       8       1       1       0       8
       1       1       0       8       1       1       0       8       1       1
       0       8       1       1       0       8       1       1       0       8
       1       1       0       8       1       1       0       8       1       1
       0       8       1       1       0       8       1       1       0       8
       1       1       0       8       1       1       0       8       1       1
       0       8       1       1       0       8       1       1       0       8
       1       1       0       8       1       1       0       8       1       1
       0       8       1       1       0       8       1       1       0       8
       1       1       0       8       1       1       0       8       1       1
       0       8       1       1       0       8       1       1       0       8
       1       1       0       8       1       1       0       8       1       1
       0       8       1       1       0       8       1       1       0       8
       1       1       0       8       1       1       0       8       1       1
       0       8       1       1       0       8       1       1       0       8
       1       1       0       8       1       1       0       8       1       1
       0       8       1       1       0       8       1       1       0       8
       1       1       0       8       1       1       0       8       1       1
       0       8       1       1       0       8       1       1       0       8
       1       1       0       8       1       1       0       8       1       1
       0       8       1       1       0       8       1       1       0       8
       1       1       0       8       1       1       0       8       1       1
       0       8       1       1       0       8       1       1       0       8
       1       1       0       8       1       1       0       8       1       1
       0       8       1       1       0       8       1       1       0       8
       1       1       0       8       1       1       0       8       1       1
       0       8       1       1       0       8       1       1       0       8
       1       1       0       8       1       1       0       8       1       1
       0       8       1       1       0       8       1       1       0       8
       1       1       0       8       1       1       0       8       1       1
       0       8       1       1       0       8       1       1       0       8
       1       1       0       8       1       1       0       8       1       1
       0       8       1       1       0       8       1       1       0       8
       1       1       0       8       1       1       0       8       1       1
       0       8       1       1       0       8       1       1       0       8
       1       1       0       8       1       1       0       8       1       1
       0       8       1       1       0       8       1       1       0       8
       1       1       0       8       1       1       0       8       1       1
       0       8       1       1       0       8       1       1       0       8
       1       1       0       8       1       1       0       8       1       1
       0       8       1       1       0       8       1       1       0       8
       1       1       0       8       1       1       0       8       1       1
       0       8       1       1       0
%FLAG MASS                                                                      
%FORMAT(5E16.8)                                                                 
  2.29900000E+01  3.54500000E+01  2.29900000E+01  3.54500000E+01  2.29900000E+01
  3.54500000E+01  2.29900000E+01  3.54500000E+01  2.29900000E+01  3.54500000E+01
  1.60000000E+01  1.20100000E+01  1.40100000E+01  1.20100000E+01  1.40100000E+01
  1.20100000E+01  1.20100000E+01  1.60000000E+01  1.40100000E+01  1.20100000E+01
  1.20100000E+01  1.40100000E+01  1.20100000E+01  1.40100000E+01  1.00800000E+00
  1.00800000E+00  1.00800000E+00  1.00800000E+00  1.00800000E+00  1.00800000E+00
  1.00800000E+00  1.60000000E+01  1.00800000E+00  1.00800000E+00  0.00000000E+00
  1.60000000E+01  1.00800000E+00  1.00800000E+00  0.00000000E+00  1.60000000E+01
  1.00800000E+00  1.00800000E+00  0.00000000E+00  1.60000000E+01  1.00800000E+00
  1.00800000E+00  0.00000000E+00  1.60000000E+01  1.00800000E+00  1.00800000E+00
  0.00000000E+00  1.60000000E+01  1.00800000E+00  1.00800000E+00  0.00000000E+00
  1.60000000E+01  1.00800000E+00  1.00800000E+00  0.00000000E+00  1.60000000E+01
  1.00800000E+00  1.00800000E+00  0.00000000E+00  1.60000000E+01  1.00800000E+00
  1.00800000E+00  0.00000000E+00  1.60000000E+01  1.00800000E+00  1.00800000E+00
  0.00000000E+00  1.60000000E+01  1.00800000E+00  1.00800000E+00  0.00000000E+00
  1.60000000E+01  1.00800000E+00  1.00800000E+00  0.00000000E+00  1.60000000E+01
  1.00800000E+00  1.00800000E+00  0.00000000E+00  1.60000000E+01  1.00800000E+00
  1.00800000E+00  0.00000000E+00  1.60000000E+01  1.00800000E+00  1.00800000E+00
  0.00000000E+00  1.60000000E+01  1.00800000E+00  1.00800000E+00  0.00000000E+00
  1.60000000E+01  1.00800000E+00  1.00800000E+00  0.00000000E+00  1.60000000E+01
  1.00800000E+00  1.00800000E+00  0.00000000E+00  1.60000000E+01  1.00800000E+00
  1.00800000E+00  0.00000000E+00  1.60000000E+01  1.00800000E+00  1.00800000E+00
  0.00000000E+00  1.60000000E+01  1.00800000E+00  1.00800000E+00  0.00000000E+00
  1.60000000E+01  1.00800000E+00  1.00800000E+00  0.00000000E+00  1.60000000E+01
  1.00800000E+00  1.00800000E+00  0.00000000E+00  1.60000000E+01  1.00800000E+00
  1.00800000E+00  0.00000000E+00  1.60000000E+01  1.00800000E+00  1.00800000E+00
  0.00000000E+00  1.60000000E+01  1.00800000E+00  1.00800000E+00  0.00000000E+00
  1.60000000E+01  1.00800000E+00  1.00800000E+00  0.00000000E+00  1.60000000E+01
  1.00800000E+00  1.00800000E+00  0.00000000E+00  1.60000000E+01  1.00800000E+00
  1.00800000E+00  0.00000000E+00  1.60000000E+01  1.00800000E+00  1.00800000E+00
  0.00000000E+00  1.60000000E+01  1.00800000E+00  1.00800000E+00  0.00000000E+00
  1.60000000E+01  1.00800000E+00  1.00800000E+00  0.00000000E+00  1.60000000E+01
  1.00800000E+00  1.00800000E+00  0.00000000E+00  1.60000000E+01  1.00800000E+00
  1.00800000E+00  0.00000000E+00  1.60000000E+01  1.00800000E+00  1.00800000E+00
  0.00000000E+00  1.60000000E+01  1.00800000E+00  1.00800000E+00  0.00000000E+00
  1.60000000E+01  1.00800000E+00  1.00800000E+00  0.00000000E+00  1.60000000E+01
  1.00800000E+00  1.00800000E+00  0.00000000E+00  1.60000000E+01  1.00800000E+00
  1.00800000E+00  0.00000000E+00  1.60000000E+01  1.00800000E+00  1.00800000E+00
  0.00000000E+00  1.60000000E+01  1.00800000E+00  1.00800000E+00  0.00000000E+00
  1.60000000E+01  1.00800000E+00  1.00800000E+00  0.00000000E+00  1.60000000E+01
  1.00800000E+00  1.00800000E+00  0.00000000E+00  1.60000000E+01  1.00800000E+00
  1.00800000E+00  0.00000000E+00  1.60000000E+01  1.00800000E+00  1.00800000E+00
  0.00000000E+00  1.60000000E+01  1.00800000E+00  1.00800000E+00  0.00000000E+00
  1.60000000E+01  1.00800000E+00  1.00800000E+00  0.00000000E+00  1.60000000E+01
  1.00800000E+00  1.00800000E+00  0.00000000E+00  1.60000000E+01  1.00800000E+00
  1.00800000E+00  0.00000000E+00  1.60000000E+01  1.00800000E+00  1.00800000E+00
  0.00000000E+00  1.60000000E+01  1.00800000E+00  1.00800000E+00  0.00000000E+00
  1.60000000E+01  1.00800000E+00  1.00800000E+00  0.00000000E+00  1.60000000E+01
  1.00800000E+00  1.00800000E+00  0.00000000E+00  1.60000000E+01  1.00800000E+00
  1.00800000E+00  0.00000000E+00  1.60000000E+01  1.00800000E+00  1.00800000E+00
  0.00000000E+00  1.60000000E+01  1.00800000E+00  1.00800000E+00  0.00000000E+00
  1.60000000E+01  1.00800000E+00  1.00800000E+00  0.00000000E+00  1.60000000E+01
  1.00800000E+00  1.00800000E+00  0.00000000E+00  1.60000000E+01  1.00800000E+00
  1.00800000E+00  0.00000000E+00  1.60000000E+01  1.00800000E+00  1.00800000E+00
  0.00000000E+00  1.60000000E+01  1.00800000E+00  1.00800000E+00  0.00000000E+00
  1.60000000E+01  1.00800000E+00  1.00800000E+00  0.00000000E+00  1.60000000E+01
  1.00800000E+00  1.00800000E+00  0.00000000E+00  1.60000000E+01  1.00800000E+00
  1.00800000E+00  0.00000000E+00  1.60000000E+01  1.00800000E+00  1.00800000E+00
  0.00000000E+00  1.60000000E+01  1.00800000E+00  1.00800000E+00  0.00000000E+00
  1.60000000E+01  1.00800000E+00  1.00800000E+00  0.00000000E+00  1.60000000E+01
  1.00800000E+00  1.00800000E+00  0.00000000E+00  1.60000000E+01  1.00800000E+00
  1.00800000E+00  0.00000000E+00  1.60000000E+01  1.00800000E+00  1.00800000E+00
  0.00000000E+00  1.60000000E+01  1.00800000E+00  1.00800000E+00  0.00000000E+00
  1.60000000E+01  1.00800000E+00  1.00800000E+00  0.00000000E+00  1.60000000E+01
  1.00800000E+00  1.00800000E+00  0.00000000E+00  1.60000000E+01  1.00800000E+00
  1.00800000E+00  0.00000000E+00  1.60000000E+01  1.00800000E+00  1.00800000E+00
  0.00000000E+00  1.60000000E+01  1.00800000E+00  1.00800000E+00  0.00000000E+00
  1.60000000E+01  1.00800000E+00  1.00800000E+00  0.00000000E+00  1.60000000E+01
  1.00800000E+00  1.00800000E+00  0.00000000E+00  1.60000000E+01  1.00800000E+00
  1.00800000E+00  0.00000000E+00  1.60000000E+01  1.00800000E+00  1.00800000E+00
  0.00000000E+00  1.60000000E+01  1.00800000E+00  1.00800000E+00  0.00000000E+00
  1.60000000E+01  1.00800000E+00  1.00800000E+00  0.00000000E+00  1.60000000E+01
  1.00800000E+00  1.00800000E+00  0.00000000E+00  1.60000000E+01  1.00800000E+00
  1.00800000E+00  0.00000000E+00  1.60000000E+01  1.00800000E+00  1.00800000E+00
  0.00000000E+00  1.60000000E+01  1.00800000E+00  1.00800000E+00  0.00000000E+00
  1.60000000E+01  1.00800000E+00  1.00800000E+00  0.00000000E+00  1.60000000E+01
  1.00800000E+00  1.00800000E+00  0.00000000E+00  1.60000000E+01  1.00800000E+00
  1.00800000E+00  0.00000000E+00  1.60000000E+01  1.00800000E+00  1.00800000E+00
  0.00000000E+00  1.60000000E+01  1.00800000E+00  1.00800000E+00  0.00000000E+00
  1.60000000E+01  1.00800000E+00  1.00800000E+00  0.00000000E+00  1.60000000E+01
  1.00800000E+00  1.00800000E+00  0.00000000E+00  1.60000000E+01  1.00800000E+00
  1.00800000E+00  0.00000000E+00  1.60000000E+01  1.00800000E+00  1.00800000E+00
  0.00000000E+00  1.60000000E+01  1.00800000E+00  1.00800000E+00  0.00000000E+00
  1.60000000E+01  1.00800000E+00  1.00800000E+00  0.00000000E+00  1.60000000E+01
  1.00800000E+00  1.00800000E+00  0.00000000E+00  1.60000000E+01  1.00800000E+00
  1.00800000E+00  0.00000000E+00  1.60000000E+01  1.00800000E+00  1.00800000E+00
  0.00000000E+00  1.60000000E+01  1.00800000E+00  1.00800000E+00  0.00000000E+00
  1.60000000E+01  1.00800000E+00  1.00800000E+00  0.00000000E+00  1.60000000E+01
  1.00800000E+00  1.00800000E+00  0.00000000E+00  1.60000000E+01  1.00800000E+00
  1.00800000E+00  0.00000000E+00  1.60000000E+01  1.00800000E+00  1.00800000E+00
  0.00000000E+00  1.60000000E+01  1.00800000E+00  1.00800000E+00  0.00000000E+00
  1.60000000E+01  1.00800000E+00  1.00800000E+00  0.00000000E+00  1.60000000E+01
  1.00800000E+00  1.00800000E+00  0.00000000E+00  1.60000000E+01  1.00800000E+00
  1.00800000E+00  0.00000000E+00  1.60000000E+01  1.00800000E+00  1.00800000E+00
  0.00000000E+00  1.60000000E+01  1.00800000E+00  1.00800000E+00  0.00000000E+00
  1.60000000E+01  1.00800000E+00  1.00800000E+00  0.00000000E+00  1.60000000E+01
  1.00800000E+00  1.00800000E+00  0.00000000E+00  1.60000000E+01  1.00800000E+00
  1.00800000E+00  0.00000000E+00  1.60000000E+01  1.00800000E+00  1.00800000E+00
  0.00000000E+00  1.60000000E+01  1.00800000E+00  1.00800000E+00  0.00000000E+00
  1.60000000E+01  1.00800000E+00  1.00800000E+00  0.00000000E+00  1.60000000E+01
  1.00800000E+00  1.00800000E+00  0.00000000E+00  1.60000000E+01  1.00800000E+00
  1.00800000E+00  0.00000000E+00  1.60000000E+01  1.00800000E+00  1.00800000E+00
  0.00000000E+00  1.60000000E+01  1.00800000E+00  1.00800000E+00  0.00000000E+00
  1.60000000E+01  1.00800000E+00  1.00800000E+00  0.00000000E+00  1.60000000E+01
  1.00800000E+00  1.00800000E+00  0.00000000E+00  1.60000000E+01  1.00800000E+00
  1.00800000E+00  0.00000000E+00  1.60000000E+01  1.00800000E+00  1.00800000E+00
  0.00000000E+00  1.60000000E+01  1.00800000E+00  1.00800000E+00  0.00000000E+00
  1.60000000E+01  1.00800000E+00  1.00800000E+00  0.00000000E+00  1.60000000E+01
  1.00800000E+00  1.00800000E+00  0.00000000E+00  1.60000000E+01  1.00800000E+00
  1.00800000E+00  0.00000000E+00  1.60000000E+01  1.00800000E+00  1.00800000E+00
  0.00000000E+00  1.60000000E+01  1.00800000E+00  1.00800000E+00  0.00000000E+00
  1.60000000E+01  1.00800000E+00  1.00800000E+00  0.00000000E+00  1.60000000E+01
  1.00800000E+00  1.00800000E+00  0.00000000E+00  1.60000000E+01  1.00800000E+00
  1.00800000E+00  0.00000000E+00  1.60000000E+01  1.00800000E+00  1.00800000E+00
  0.00000000E+00  1.60000000E+01  1.00800000E+00  1.00800000E+00  0.00000000E+00
  1.60000000E+01  1.00800000E+00  1.00800000E+00  0.00000000E+00  1.60000000E+01
  1.00800000E+00  1.00800000E+00  0.00000000E+00  1.60000000E+01  1.00800000E+00
  1.00800000E+00  0.00000000E+00  1.60000000E+01  1.00800000E+00  1.00800000E+00
  0.00000000E+00  1.60000000E+01  1.00800000E+00  1.00800000E+00  0.00000000E+00
  1.60000000E+01  1.00800000E+00  1.00800000E+00  0.00000000E+00  1.60000000E+01
  1.00800000E+00  1.00800000E+00  0.00000000E+00  1.60000000E+01  1.00800000E+00
  1.00800000E+00  0.00000000E+00  1.60000000E+01  1.00800000E+00  1.00800000E+00
  0.00000000E+00  1.60000000E+01  1.00800000E+00  1.00800000E+00  0.00000000E+00
  1.60000000E+01  1.00800000E+00  1.00800000E+00  0.00000000E+00  1.60000000E+01
  1.00800000E+00  1.00800000E+00  0.00000000E+00  1.60000000E+01  1.00800000E+00
  1.00800000E+00  0.00000000E+00  1.60000000E+01  1.00800000E+00  1.00800000E+00
  0.00000000E+00  1.60000000E+01  1.00800000E+00  1.00800000E+00  0.00000000E+00
  1.60000000E+01  1.00800000E+00  1.00800000E+00  0.00000000E+00  1.60000000E+01
  1.00800000E+00  1.00800000E+00  0.00000000E+00  1.60000000E+01  1.00800000E+00
  1.00800000E+00  0.00000000E+00  1.60000000E+01  1.00800000E+00  1.00800000E+00
  0.00000000E+00  1.60000000E+01  1.00800000E+00  1.00800000E+00  0.00000000E+00
  1.60000000E+01  1.00800000E+00  1.00800000E+00  0.00000000E+00  1.60000000E+01
  1.00800000E+00  1.00800000E+00  0.00000000E+00  1.60000000E+01  1.00800000E+00
  1.00800000E+00  0.00000000E+00  1.60000000E+01  1.00800000E+00  1.00800000E+00
  0.00000000E+00  1.60000000E+01  1.00800000E+00  1.00800000E+00  0.00000000E+00
  1.60000000E+01  1.00800000E+00  1.00800000E+00  0.00000000E+00  1.60000000E+01
  1.00800000E+00  1.00800000E+00  0.00000000E+00  1.60000000E+01  1.00800000E+00
  1.00800000E+00  0.00000000E+00  1.60000000E+01  1.00800000E+00  1.00800000E+00
  0.00000000E+00  1.60000000E+01  1.00800000E+00  1.00800000E+00  0.00000000E+00
  1.60000000E+01  1.00800000E+00  1.00800000E+00  0.00000000E+00  1.60000000E+01
  1.00800000E+00  1.00800000E+00  0.00000000E+00  1.60000000E+01  1.00800000E+00
  1.00800000E+00  0.00000000E+00  1.60000000E+01  1.00800000E+00  1.00800000E+00
  0.00000000E+00  1.60000000E+01  1.00800000E+00  1.00800000E+00  0.00000000E+00
  1.60000000E+01  1.00800000E+00  1.00800000E+00  0.00000000E+00  1.60000000E+01
  1.00800000E+00  1.00800000E+00  0.00000000E+00  1.60000000E+01  1.00800000E+00
  1.00800000E+00  0.00000000E+00  1.60000000E+01  1.00800000E+00  1.00800000E+00
  0.00000000E+00  1.60000000E+01  1.00800000E+00  1.00800000E+00  0.00000000E+00
  1.60000000E+01  1.00800000E+00  1.00800000E+00  0.00000000E+00  1.60000000E+01
  1.00800000E+00  1.00800000E+00  0.00000000E+00  1.60000000E+01  1.00800000E+00
  1.00800000E+00  0.00000000E+00  1.60000000E+01  1.00800000E+00  1.00800000E+00
  0.00000000E+00  1.60000000E+01  1.00800000E+00  1.00800000E+00  0.00000000E+00
  1.60000000E+01  1.00800000E+00  1.00800000E+00  0.00000000E+00  1.60000000E+01
  1.00800000E+00  1.00800000E+00  0.00000000E+00  1.60000000E+01  1.00800000E+00
  1.00800000E+00  0.00000000E+00  1.60000000E+01  1.00800000E+00  1.00800000E+00
  0.00000000E+00  1.60000000E+01  1.00800000E+00  1.00800000E+00  0.00000000E+00
  1.60000000E+01  1.00800000E+00  1.00800000E+00  0.00000000E+00  1.60000000E+01
  1.00800000E+00  1.00800000E+00  0.00000000E+00  1.60000000E+01  1.00800000E+00
  1.00800000E+00  0.00000000E+00  1.60000000E+01  1.00800000E+00  1.00800000E+00
  0.00000000E+00  1.60000000E+01  1.00800000E+00  1.00800000E+00  0.00000000E+00
  1.60000000E+01  1.00800000E+00  1.00800000E+00  0.00000000E+00  1.60000000E+01
  1.00800000E+00  1.00800000E+00  0.00000000E+00  1.60000000E+01  1.00800000E+00
  1.00800000E+00  0.00000000E+00  1.60000000E+01  1.00800000E+00  1.00800000E+00
  0.00000000E+00  1.60000000E+01  1.00800000E+00  1.00800000E+00  0.00000000E+00
  1.60000000E+01  1.00800000E+00  1.00800000E+00  0.00000000E+00  1.60000000E+01
  1.00800000E+00  1.00800000E+00  0.00000000E+00  1.60000000E+01  1.00800000E+00
  1.00800000E+00  0.00000000E+00  1.60000000E+01  1.00800000E+00  1.00800000E+00
  0.00000000E+00  1.60000000E+01  1.00800000E+00  1.00800000E+00  0.00000000E+00
  1.60000000E+01  1.00800000E+00  1.00800000E+00  0.00000000E+00  1.60000000E+01
  1.00800000E+00  1.00800000E+00  0.00000000E+00  1.60000000E+01  1.00800000E+00
  1.00800000E+00  0.00000000E+00  1.60000000E+01  1.00800000E+00  1.00800000E+00
  0.00000000E+00  1.60000000E+01  1.00800000E+00  1.00800000E+00  0.00000000E+00
  1.60000000E+01  1.00800000E+00  1.00800000E+00  0.00000000E+00  1.60000000E+01
  1.00800000E+00  1.00800000E+00  0.00000000E+00  1.60000000E+01  1.00800000E+00
  1.00800000E+00  0.00000000E+00  1.60000000E+01  1.00800000E+00  1.00800000E+00
  0.00000000E+00  1.60000000E+01  1.00800000E+00  1.00800000E+00  0.00000000E+00
  1.60000000E+01  1.00800000E+00  1.00800000E+00  0.00000000E+00  1.60000000E+01
  1.00800000E+00  1.00800000E+00  0.00000000E+00  1.60000000E+01  1.00800000E+00
  1.00800000E+00  0.00000000E+00  1.60000000E+01  1.00800000E+00  1.00800000E+00
  0.00000000E+00  1.60000000E+01  1.00800000E+00  1.00800000E+00  0.00000000E+00
  1.60000000E+01  1.00800000E+00  1.00800000E+00  0.00000000E+00  1.60000000E+01
  1.00800000E+00  1.00800000E+00  0.00000000E+00  1.60000000E+01  1.00800000E+00
  1.00800000E+00  0.00000000E+00  1.60000000E+01  1.00800000E+00  1.00800000E+00
  0.00000000E+00  1.60000000E+01  1.00800000E+00  1.00800000E+00  0.00000000E+00
  1.60000000E+01  1.00800000E+00  1.00800000E+00  0.00000000E+00  1.60000000E+01
  1.00800000E+00  1.00800000E+00  0.00000000E+00  1.60000000E+01  1.00800000E+00
  1.00800000E+00  0.00000000E+00  1.60000000E+01  1.00800000E+00  1.00800000E+00
  0.00000000E+00  1.60000000E+01  1.00800000E+00  1.00800000E+00  0.00000000E+00
  1.60000000E+01  1.00800000E+00  1.00800000E+00  0.00000000E+00  1.60000000E+01
  1.00800000E+00  1.00800000E+00  0.00000000E+00  1.60000000E+01  1.00800000E+00
  1.00800000E+00  0.00000000E+00  1.60000000E+01  1.00800000E+00  1.00800000E+00
  0.00000000E+00  1.60000000E+01  1.00800000E+00  1.00800000E+00  0.00000000E+00
  1.60000000E+01  1.00800000E+00  1.00800000E+00  0.00000000E+00  1.60000000E+01
  1.00800000E+00  1.00800000E+00  0.00000000E+00  1.60000000E+01  1.00800000E+00
  1.00800000E+00  0.00000000E+00  1.60000000E+01  1.00800000E+00  1.00800000E+00
  0.00000000E+00  1.60000000E+01  1.00800000E+00  1.00800000E+00  0.00000000E+00
  1.60000000E+01  1.00800000E+00  1.00800000E+00  0.00000000E+00  1.60000000E+01
  1.00800000E+00  1.00800000E+00  0.00000000E+00  1.60000000E+01  1.00800000E+00
  1.00800000E+00  0.00000000E+00  1.60000000E+01  1.00800000E+00  1.00800000E+00
  0.00000000E+00  1.60000000E+01  1.00800000E+00  1.00800000E+00  0.00000000E+00
  1.60000000E+01  1.00800000E+00  1.00800000E+00  0.00000000E+00  1.60000000E+01
  1.00800000E+00  1.00800000E+00  0.00000000E+00  1.60000000E+01  1.00800000E+00
  1.00800000E+00  0.00000000E+00  1.60000000E+01  1.00800000E+00  1.00800000E+00
  0.00000000E+00  1.60000000E+01  1.00800000E+00  1.00800000E+00  0.00000000E+00
  1.60000000E+01  1.00800000E+00  1.00800000E+00  0.00000000E+00  1.60000000E+01
  1.00800000E+00  1.00800000E+00  0.00000000E+00  1.60000000E+01  1.00800000E+00
  1.00800000E+00  0.00000000E+00  1.60000000E+01  1.00800000E+00  1.00800000E+00
  0.00000000E+00  1.60000000E+01  1.00800000E+00  1.00800000E+00  0.00000000E+00
  1.60000000E+01  1.00800000E+00  1.00800000E+00  0.00000000E+00  1.60000000E+01
  1.00800000E+00  1.00800000E+00  0.00000000E+00  1.60000000E+01  1.00800000E+00
  1.00800000E+00  0.00000000E+00  1.60000000E+01  1.00800000E+00  1.00800000E+00
  0.00000000E+00  1.60000000E+01  1.00800000E+00  1.00800000E+00  0.00000000E+00
  1.60000000E+01  1.00800000E+00  1.00800000E+00  0.00000000E+00  1.60000000E+01
  1.00800000E+00  1.00800000E+00  0.00000000E+00  1.60000000E+01  1.00800000E+00
  1.00800000E+00  0.00000000E+00  1.60000000E+01  1.00800000E+00  1.00800000E+00
  0.00000000E+00  1.60000000E+01  1.00800000E+00  1.00800000E+00  0.00000000E+00
  1.60000000E+01  1.00800000E+00  1.00800000E+00  0.00000000E+00  1.60000000E+01
  1.00800000E+00  1.00800000E+00  0.00000000E+00  1.60000000E+01  1.00800000E+00
  1.00800000E+00  0.00000000E+00  1.60000000E+01  1.00800000E+00  1.00800000E+00
  0.00000000E+00  1.60000000E+01  1.00800000E+00  1.00800000E+00  0.00000000E+00
  1.60000000E+01  1.00800000E+00  1.00800000E+00  0.00000000E+00  1.60000000E+01
  1.00800000E+00  1.00800000E+00  0.00000000E+00  1.60000000E+01  1.00800000E+00
  1.00800000E+00  0.00000000E+00  1.60000000E+01  1.00800000E+00  1.00800000E+00
  0.00000000E+00  1.60000000E+01  1.00800000E+00  1.00800000E+00  0.00000000E+00
  1.60000000E+01  1.00800000E+00  1.00800000E+00  0.00000000E+00  1.60000000E+01
  1.00800000E+00  1.00800000E+00  0.00000000E+00  1.60000000E+01  1.00800000E+00
  1.00800000E+00  0.00000000E+00  1.60000000E+01  1.00800000E+00  1.00800000E+00
  0.00000000E+00  1.60000000E+01  1.00800000E+00  1.00800000E+00  0.00000000E+00
  1.60000000E+01  1.00800000E+00  1.00800000E+00  0.00000000E+00  1.60000000E+01
  1.00800000E+00  1.00800000E+00  0.00000000E+00  1.60000000E+01  1.00800000E+00
  1.00800000E+00  0.00000000E+00  1.60000000E+01  1.00800000E+00  1.00800000E+00
  0.00000000E+00  1.60000000E+01  1.00800000E+00  1.00800000E+00  0.00000000E+00
  1.60000000E+01  1.00800000E+00  1.00800000E+00  0.00000000E+00  1.60000000E+01
  1.00800000E+00  1.00800000E+00  0.00000000E+00  1.60000000E+01  1.00800000E+00
  1.00800000E+00  0.00000000E+00  1.60000000E+01  1.00800000E+00  1.00800000E+00
  0.00000000E+00  1.60000000E+01  1.00800000E+00  1.00800000E+00  0.00000000E+00
  1.60000000E+01  1.00800000E+00  1.00800000E+00  0.00000000E+00  1.60000000E+01
  1.00800000E+00  1.00800000E+00  0.00000000E+00  1.60000000E+01  1.00800000E+00
  1.00800000E+00  0.00000000E+00  1.60000000E+01  1.00800000E+00  1.00800000E+00
  0.00000000E+00  1.60000000E+01  1.00800000E+00  1.00800000E+00  0.00000000E+00
  1.60000000E+01  1.00800000E+00  1.00800000E+00  0.00000000E+00  1.60000000E+01
  1.00800000E+00  1.00800000E+00  0.00000000E+00  1.60000000E+01  1.00800000E+00
  1.00800000E+00  0.00000000E+00  1.60000000E+01  1.00800000E+00  1.00800000E+00
  0.00000000E+00  1.60000000E+01  1.00800000E+00  1.00800000E+00  0.00000000E+00
  1.60000000E+01  1.00800000E+00  1.00800000E+00  0.00000000E+00  1.60000000E+01
  1.00800000E+00  1.00800000E+00  0.00000000E+00  1.60000000E+01  1.00800000E+00
  1.00800000E+00  0.00000000E+00  1.60000000E+01  1.00800000E+00  1.00800000E+00
  0.00000000E+00  1.60000000E+01  1.00800000E+00  1.00800000E+00  0.00000000E+00
  1.60000000E+01  1.00800000E+00  1.00800000E+00  0.00000000E+00  1.60000000E+01
  1.00800000E+00  1.00800000E+00  0.00000000E+00  1.60000000E+01  1.00800000E+00
  1.00800000E+00  0.00000000E+00  1.60000000E+01  1.00800000E+00  1.00800000E+00
  0.00000000E+00  1.60000000E+01  1.00800000E+00  1.00800000E+00  0.00000000E+00
  1.60000000E+01  1.00800000E+00  1.00800000E+00  0.00000000E+00  1.60000000E+01
  1.00800000E+00  1.00800000E+00  0.00000000E+00  1.60000000E+01  1.00800000E+00
  1.00800000E+00  0.00000000E+00  1.60000000E+01  1.00800000E+00  1.00800000E+00
  0.00000000E+00  1.60000000E+01  1.00800000E+00  1.00800000E+00  0.00000000E+00
  1.60000000E+01  1.00800000E+00  1.00800000E+00  0.00000000E+00  1.60000000E+01
  1.00800000E+00  1.00800000E+00  0.00000000E+00  1.60000000E+01  1.00800000E+00
  1.00800000E+00  0.00000000E+00  1.60000000E+01  1.00800000E+00  1.00800000E+00
  0.00000000E+00  1.60000000E+01  1.00800000E+00  1.00800000E+00  0.00000000E+00
  1.60000000E+01  1.00800000E+00  1.00800000E+00  0.00000000E+00  1.60000000E+01
  1.00800000E+00  1.00800000E+00  0.00000000E+00  1.60000000E+01  1.00800000E+00
  1.00800000E+00  0.00000000E+00  1.60000000E+01  1.00800000E+00  1.00800000E+00
  0.00000000E+00  1.60000000E+01  1.00800000E+00  1.00800000E+00  0.00000000E+00
  1.60000000E+01  1.00800000E+00  1.00800000E+00  0.00000000E+00  1.60000000E+01
  1.00800000E+00  1.00800000E+00  0.00000000E+00  1.60000000E+01  1.00800000E+00
  1.00800000E+00  0.00000000E+00  1.60000000E+01  1.00800000E+00  1.00800000E+00
  0.00000000E+00  1.60000000E+01  1.00800000E+00  1.00800000E+00  0.00000000E+00
  1.60000000E+01  1.00800000E+00  1.00800000E+00  0.00000000E+00  1.60000000E+01
  1.00800000E+00  1.00800000E+00  0.00000000E+00  1.60000000E+01  1.00800000E+00
  1.00800000E+00  0.00000000E+00  1.60000000E+01  1.00800000E+00  1.00800000E+00
  0.00000000E+00  1.60000000E+01  1.00800000E+00  1.00800000E+00  0.00000000E+00
  1.60000000E+01  1.00800000E+00  1.00800000E+00  0.00000000E+00  1.60000000E+01
  1.00800000E+00  1.00800000E+00  0.00000000E+00  1.60000000E+01  1.00800000E+00
  1.00800000E+00  0.00000000E+00  1.60000000E+01  1.00800000E+00  1.00800000E+00
  0.00000000E+00  1.60000000E+01  1.00800000E+00  1.00800000E+00  0.00000000E+00
  1.60000000E+01  1.00800000E+00  1.00800000E+00  0.00000000E+00  1.60000000E+01
  1.00800000E+00  1.00800000E+00  0.00000000E+00  1.60000000E+01  1.00800000E+00
  1.00800000E+00  0.00000000E+00  1.60000000E+01  1.00800000E+00  1.00800000E+00
  0.00000000E+00  1.60000000E+01  1.00800000E+00  1.00800000E+00  0.00000000E+00
  1.60000000E+01  1.00800000E+00  1.00800000E+00  0.00000000E+00  1.60000000E+01
  1.00800000E+00  1.00800000E+00  0.00000000E+00  1.60000000E+01  1.00800000E+00
  1.00800000E+00  0.00000000E+00  1.60000000E+01  1.00800000E+00  1.00800000E+00
  0.00000000E+00  1.60000000E+01  1.00800000E+00  1.00800000E+00  0.00000000E+00
  1.60000000E+01  1.00800000E+00  1.00800000E+00  0.00000000E+00  1.60000000E+01
  1.00800000E+00  1.00800000E+00  0.00000000E+00  1.60000000E+01  1.00800000E+00
  1.00800000E+00  0.00000000E+00  1.60000000E+01  1.00800000E+00  1.00800000E+00
  0.00000000E+00  1.60000000E+01  1.00800000E+00  1.00800000E+00  0.00000000E+00
  1.60000000E+01  1.00800000E+00  1.00800000E+00  0.00000000E+00  1.60000000E+01
  1.00800000E+00  1.00800000E+00  0.00000000E+00  1.60000000E+01  1.00800000E+00
  1.00800000E+00  0.00000000E+00  1.60000000E+01  1.00800000E+00  1.00800000E+00
  0.00000000E+00  1.60000000E+01  1.00800000E+00  1.00800000E+00  0.00000000E+00
  1.60000000E+01  1.00800000E+00  1.00800000E+00  0.00000000E+00  1.60000000E+01
  1.00800000E+00  1.00800000E+00  0.00000000E+00  1.60000000E+01  1.00800000E+00
  1.00800000E+00  0.00000000E+00  1.60000000E+01  1.00800000E+00  1.00800000E+00
  0.00000000E+00  1.60000000E+01  1.00800000E+00  1.00800000E+00  0.00000000E+00
  1.60000000E+01  1.00800000E+00  1.00800000E+00  0.00000000E+00  1.60000000E+01
  1.00800000E+00  1.00800000E+00  0.00000000E+00  1.60000000E+01  1.00800000E+00
  1.00800000E+00  0.00000000E+00  1.60000000E+01  1.00800000E+00  1.00800000E+00
  0.00000000E+00  1.60000000E+01  1.00800000E+00  1.00800000E+00  0.00000000E+00
  1.60000000E+01  1.00800000E+00  1.00800000E+00  0.00000000E+00  1.60000000E+01
  1.00800000E+00  1.00800000E+00  0.00000000E+00  1.60000000E+01  1.00800000E+00
  1.00800000E+00  0.00000000E+00  1.60000000E+01  1.00800000E+00  1.00800000E+00
  0.00000000E+00  1.60000000E+01  1.00800000E+00  1.00800000E+00  0.00000000E+00
  1.60000000E+01  1.00800000E+00  1.00800000E+00  0.00000000E+00  1.60000000E+01
  1.00800000E+00  1.00800000E+00  0.00000000E+00  1.60000000E+01  1.00800000E+00
  1.00800000E+00  0.00000000E+00  1.60000000E+01  1.00800000E+00  1.00800000E+00
  0.00000000E+00  1.60000000E+01  1.00800000E+00  1.00800000E+00  0.00000000E+00
  1.60000000E+01  1.00800000E+00  1.00800000E+00  0.00000000E+00  1.60000000E+01
  1.00800000E+00  1.00800000E+00  0.00000000E+00  1.60000000E+01  1.00800000E+00
  1.00800000E+00  0.00000000E+00  1.60000000E+01  1.00800000E+00  1.00800000E+00
  0.00000000E+00  1.60000000E+01  1.00800000E+00  1.00800000E+00  0.00000000E+00
  1.60000000E+01  1.00800000E+00  1.00800000E+00  0.00000000E+00  1.60000000E+01
  1.00800000E+00  1.00800000E+00  0.00000000E+00  1.60000000E+01  1.00800000E+00
  1.00800000E+00  0.00000000E+00  1.60000000E+01  1.00800000E+00  1.00800000E+00
  0.00000000E+00  1.60000000E+01  1.00800000E+00  1.00800000E+00  0.00000000E+00
  1.60000000E+01  1.00800000E+00  1.00800000E+00  0.00000000E+00  1.60000000E+01
  1.00800000E+00  1.00800000E+00  0.00000000E+00  1.60000000E+01  1.00800000E+00
  1.00800000E+00  0.00000000E+00  1.60000000E+01  1.00800000E+00  1.00800000E+00
  0.00000000E+00  1.60000000E+01  1.00800000E+00  1.00800000E+00  0.00000000E+00
  1.60000000E+01  1.00800000E+00  1.00800000E+00  0.00000000E+00  1.60000000E+01
  1.00800000E+00  1.00800000E+00  0.00000000E+00  1.60000000E+01  1.00800000E+00
  1.00800000E+00  0.00000000E+00  1.60000000E+01  1.00800000E+00  1.00800000E+00
  0.00000000E+00  1.60000000E+01  1.00800000E+00  1.00800000E+00  0.00000000E+00
  1.60000000E+01  1.00800000E+00  1.00800000E+00  0.00000000E+00  1.60000000E+01
  1.00800000E+00  1.00800000E+00  0.00000000E+00  1.60000000E+01  1.00800000E+00
  1.00800000E+00  0.00000000E+00  1.60000000E+01  1.00800000E+00  1.00800000E+00
  0.00000000E+00  1.60000000E+01  1.00800000E+00  1.00800000E+00  0.00000000E+00
  1.60000000E+01  1.00800000E+00  1.00800000E+00  0.00000000E+00  1.60000000E+01
  1.00800000E+00  1.00800000E+00  0.00000000E+00  1.60000000E+01  1.00800000E+00
  1.00800000E+00  0.00000000E+00  1.60000000E+01  1.00800000E+00  1.00800000E+00
  0.00000000E+00  1.60000000E+01  1.00800000E+00  1.00800000E+00  0.00000000E+00
  1.60000000E+01  1.00800000E+00  1.00800000E+00  0.00000000E+00  1.60000000E+01
  1.00800000E+00  1.00800000E+00  0.00000000E+00  1.60000000E+01  1.00800000E+00
  1.00800000E+00  0.00000000E+00  1.60000000E+01  1.00800000E+00  1.00800000E+00
  0.00000000E+00  1.60000000E+01  1.00800000E+00  1.00800000E+00  0.00000000E+00
  1.60000000E+01  1.00800000E+00  1.00800000E+00  0.00000000E+00  1.60000000E+01
  1.00800000E+00  1.00800000E+00  0.00000000E+00  1.60000000E+01  1.00800000E+00
  1.00800000E+00  0.00000000E+00  1.60000000E+01  1.00800000E+00  1.00800000E+00
  0.00000000E+00  1.60000000E+01  1.00800000E+00  1.00800000E+00  0.00000000E+00
  1.60000000E+01  1.00800000E+00  1.00800000E+00  0.00000000E+00  1.60000000E+01
  1.00800000E+00  1.00800000E+00  0.00000000E+00  1.60000000E+01  1.00800000E+00
  1.00800000E+00  0.00000000E+00  1.60000000E+01  1.00800000E+00  1.00800000E+00
  0.00000000E+00  1.60000000E+01  1.00800000E+00  1.00800000E+00  0.00000000E+00
  1.60000000E+01  1.00800000E+00  1.00800000E+00  0.00000000E+00  1.60000000E+01
  1.00800000E+00  1.00800000E+00  0.00000000E+00  1.60000000E+01  1.00800000E+00
  1.00800000E+00  0.00000000E+00  1.60000000E+01  1.00800000E+00  1.00800000E+00
  0.00000000E+00  1.60000000E+01  1.00800000E+00  1.00800000E+00  0.00000000E+00
  1.60000000E+01  1.00800000E+00  1.00800000E+00  0.00000000E+00  1.60000000E+01
  1.00800000E+00  1.00800000E+00  0.00000000E+00  1.60000000E+01  1.00800000E+00
  1.00800000E+00  0.00000000E+00  1.60000000E+01  1.00800000E+00  1.00800000E+00
  0.00000000E+00  1.60000000E+01  1.00800000E+00  1.00800000E+00  0.00000000E+00
  1.60000000E+01  1.00800000E+00  1.00800000E+00  0.00000000E+00  1.60000000E+01
  1.00800000E+00  1.00800000E+00  0.00000000E+00  1.60000000E+01  1.00800000E+00
  1.00800000E+00  0.00000000E+00  1.60000000E+01  1.00800000E+00  1.00800000E+00
  0.00000000E+00  1.60000000E+01  1.00800000E+00  1.00800000E+00  0.00000000E+00
  1.60000000E+01  1.00800000E+00  1.00800000E+00  0.00000000E+00  1.60000000E+01
  1.00800000E+00  1.00800000E+00  0.00000000E+00  1.60000000E+01  1.00800000E+00
  1.00800000E+00  0.00000000E+00  1.60000000E+01  1.00800000E+00  1.00800000E+00
  0.00000000E+00  1.60000000E+01  1.00800000E+00  1.00800000E+00  0.00000000E+00
  1.60000000E+01  1.00800000E+00  1.00800000E+00  0.00000000E+00  1.60000000E+01
  1.00800000E+00  1.00800000E+00  0.00000000E+00  1.60000000E+01  1.00800000E+00
  1.00800000E+00  0.00000000E+00  1.60000000E+01  1.00800000E+00  1.00800000E+00
  0.00000000E+00  1.60000000E+01  1.00800000E+00  1.00800000E+00  0.00000000E+00
  1.60000000E+01  1.00800000E+00  1.00800000E+00  0.00000000E+00  1.60000000E+01
  1.00800000E+00  1.00800000E+00  0.00000000E+00  1.60000000E+01  1.00800000E+00
  1.00800000E+00  0.00000000E+00  1.60000000E+01  1.00800000E+00  1.00800000E+00
  0.00000000E+00  1.60000000E+01  1.00800000E+00  1.00800000E+00  0.00000000E+00
  1.60000000E+01  1.00800000E+00  1.00800000E+00  0.00000000E+00  1.60000000E+01
  1.00800000E+00  1.00800000E+00  0.00000000E+00  1.60000000E+01  1.00800000E+00
  1.00800000E+00  0.00000000E+00  1.60000000E+01  1.00800000E+00  1.00800000E+00
  0.00000000E+00  1.60000000E+01  1.00800000E+00  1.00800000E+00  0.00000000E+00
  1.60000000E+01  1.00800000E+00  1.00800000E+00  0.00000000E+00  1.60000000E+01
  1.00800000E+00  1.00800000E+00  0.00000000E+00  1.60000000E+01  1.00800000E+00
  1.00800000E+00  0.00000000E+00  1.60000000E+01  1.00800000E+00  1.00800000E+00
  0.00000000E+00  1.60000000E+01  1.00800000E+00  1.00800000E+00  0.00000000E+00
  1.60000000E+01  1.00800000E+00  1.00800000E+00  0.00000000E+00  1.60000000E+01
  1.00800000E+00  1.00800000E+00  0.00000000E+00  1.60000000E+01  1.00800000E+00
  1.00800000E+00  0.00000000E+00  1.60000000E+01  1.00800000E+00  1.00800000E+00
  0.00000000E+00  1.60000000E+01  1.00800000E+00  1.00800000E+00  0.00000000E+00
  1.60000000E+01  1.00800000E+00  1.00800000E+00  0.00000000E+00  1.60000000E+01
  1.00800000E+00  1.00800000E+00  0.00000000E+00  1.60000000E+01  1.00800000E+00
  1.00800000E+00  0.00000000E+00  1.60000000E+01  1.00800000E+00  1.00800000E+00
  0.00000000E+00  1.60000000E+01  1.00800000E+00  1.00800000E+00  0.00000000E+00
  1.60000000E+01  1.00800000E+00  1.00800000E+00  0.00000000E+00  1.60000000E+01
  1.00800000E+00  1.00800000E+00  0.00000000E+00  1.60000000E+01  1.00800000E+00
  1.00800000E+00  0.00000000E+00  1.60000000E+01  1.00800000E+00  1.00800000E+00
  0.00000000E+00  1.60000000E+01  1.00800000E+00  1.00800000E+00  0.00000000E+00
  1.60000000E+01  1.00800000E+00  1.00800000E+00  0.00000000E+00  1.60000000E+01
  1.00800000E+00  1.00800000E+00  0.00000000E+00  1.60000000E+01  1.00800000E+00
  1.00800000E+00  0.00000000E+00  1.60000000E+01  1.00800000E+00  1.00800000E+00
  0.00000000E+00  1.60000000E+01  1.00800000E+00  1.00800000E+00  0.00000000E+00
  1.60000000E+01  1.00800000E+00  1.00800000E+00  0.00000000E+00  1.60000000E+01
  1.00800000E+00  1.00800000E+00  0.00000000E+00  1.60000000E+01  1.00800000E+00
  1.00800000E+00  0.00000000E+00  1.60000000E+01  1.00800000E+00  1.00800000E+00
  0.00000000E+00  1.60000000E+01  1.00800000E+00  1.00800000E+00  0.00000000E+00
  1.60000000E+01  1.00800000E+00  1.00800000E+00  0.00000000E+00  1.60000000E+01
  1.00800000E+00  1.00800000E+00  0.00000000E+00  1.60000000E+01  1.00800000E+00
  1.00800000E+00  0.00000000E+00  1.60000000E+01  1.00800000E+00  1.00800000E+00
  0.00000000E+00  1.60000000E+01  1.00800000E+00  1.00800000E+00  0.00000000E+00
  1.60000000E+01  1.00800000E+00  1.00800000E+00  0.00000000E+00  1.60000000E+01
  1.00800000E+00  1.00800000E+00  0.00000000E+00  1.60000000E+01  1.00800000E+00
  1.00800000E+00  0.00000000E+00  1.60000000E+01  1.00800000E+00  1.00800000E+00
  0.00000000E+00  1.60000000E+01  1.00800000E+00  1.00800000E+00  0.00000000E+00
  1.60000000E+01  1.00800000E+00  1.00800000E+00  0.00000000E+00  1.60000000E+01
  1.00800000E+00  1.00800000E+00  0.00000000E+00  1.60000000E+01  1.00800000E+00
  1.00800000E+00  0.00000000E+00  1.60000000E+01  1.00800000E+00  1.00800000E+00
  0.00000000E+00  1.60000000E+01  1.00800000E+00  1.00800000E+00  0.00000000E+00
  1.60000000E+01  1.00800000E+00  1.00800000E+00  0.00000000E+00  1.60000000E+01
  1.00800000E+00  1.00800000E+00  0.00000000E+00  1.60000000E+01  1.00800000E+00
  1.00800000E+00  0.00000000E+00  1.60000000E+01  1.00800000E+00  1.00800000E+00
  0.00000000E+00  1.60000000E+01  1.00800000E+00  1.00800000E+00  0.00000000E+00
  1.60000000E+01  1.00800000E+00  1.00800000E+00  0.00000000E+00  1.60000000E+01
  1.00800000E+00  1.00800000E+00  0.00000000E+00  1.60000000E+01  1.00800000E+00
  1.00800000E+00  0.00000000E+00  1.60000000E+01  1.00800000E+00  1.00800000E+00
  0.00000000E+00  1.60000000E+01  1.00800000E+00  1.00800000E+00  0.00000000E+00
  1.60000000E+01  1.00800000E+00  1.00800000E+00  0.00000000E+00  1.60000000E+01
  1.00800000E+00  1.00800000E+00  0.00000000E+00  1.60000000E+01  1.00800000E+00
  1.00800000E+00  0.00000000E+00  1.60000000E+01  1.00800000E+00  1.00800000E+00
  0.00000000E+00  1.60000000E+01  1.00800000E+00  1.00800000E+00  0.00000000E+00
  1.60000000E+01  1.00800000E+00  1.00800000E+00  0.00000000E+00  1.60000000E+01
  1.00800000E+00  1.00800000E+00  0.00000000E+00  1.60000000E+01  1.00800000E+00
  1.00800000E+00  0.00000000E+00  1.60000000E+01  1.00800000E+00  1.00800000E+00
  0.00000000E+00  1.60000000E+01  1.00800000E+00  1.00800000E+00  0.00000000E+00
  1.60000000E+01  1.00800000E+00  1.00800000E+00  0.00000000E+00  1.60000000E+01
  1.00800000E+00  1.00800000E+00  0.00000000E+00  1.60000000E+01  1.00800000E+00
  1.00800000E+00  0.00000000E+00  1.60000000E+01  1.00800000E+00  1.00800000E+00
  0.00000000E+00  1.60000000E+01  1.00800000E+00  1.00800000E+00  0.00000000E+00
  1.60000000E+01  1.00800000E+00  1.00800000E+00  0.00000000E+00  1.60000000E+01
  1.00800000E+00  1.00800000E+00  0.00000000E+00  1.60000000E+01  1.00800000E+00
  1.00800000E+00  0.00000000E+00  1.60000000E+01  1.00800000E+00  1.00800000E+00
  0.00000000E+00  1.60000000E+01  1.00800000E+00  1.00800000E+00  0.00000000E+00
  1.60000000E+01  1.00800000E+00  1.00800000E+00  0.00000000E+00  1.60000000E+01
  1.00800000E+00  1.00800000E+00  0.00000000E+00  1.60000000E+01  1.00800000E+00
  1.00800000E+00  0.00000000E+00  1.60000000E+01  1.00800000E+00  1.00800000E+00
  0.00000000E+00  1.60000000E+01  1.00800000E+00  1.00800000E+00  0.00000000E+00
  1.60000000E+01  1.00800000E+00  1.00800000E+00  0.00000000E+00  1.60000000E+01
  1.00800000E+00  1.00800000E+00  0.00000000E+00  1.60000000E+01  1.00800000E+00
  1.00800000E+00  0.00000000E+00  1.60000000E+01  1.00800000E+00  1.00800000E+00
  0.00000000E+00  1.60000000E+01  1.00800000E+00  1.00800000E+00  0.00000000E+00
  1.60000000E+01  1.00800000E+00  1.00800000E+00  0.00000000E+00  1.60000000E+01
  1.00800000E+00  1.00800000E+00  0.00000000E+00  1.60000000E+01  1.00800000E+00
  1.00800000E+00  0.00000000E+00  1.60000000E+01  1.00800000E+00  1.00800000E+00
  0.00000000E+00  1.60000000E+01  1.00800000E+00  1.00800000E+00  0.00000000E+00
  1.60000000E+01  1.00800000E+00  1.00800000E+00  0.00000000E+00  1.60000000E+01
  1.00800000E+00  1.00800000E+00  0.00000000E+00  1.60000000E+01  1.00800000E+00
  1.00800000E+00  0.00000000E+00  1.60000000E+01  1.00800000E+00  1.00800000E+00
  0.00000000E+00  1.60000000E+01  1.00800000E+00  1.00800000E+00  0.00000000E+00
  1.60000000E+01  1.00800000E+00  1.00800000E+00  0.00000000E+00  1.60000000E+01
  1.00800000E+00  1.00800000E+00  0.00000000E+00  1.60000000E+01  1.00800000E+00
  1.00800000E+00  0.00000000E+00  1.60000000E+01  1.00800000E+00  1.00800000E+00
  0.00000000E+00  1.60000000E+01  1.00800000E+00  1.00800000E+00  0.00000000E+00
  1.60000000E+01  1.00800000E+00  1.00800000E+00  0.00000000E+00  1.60000000E+01
  1.00800000E+00  1.00800000E+00  0.00000000E+00  1.60000000E+01  1.00800000E+00
  1.00800000E+00  0.00000000E+00  1.60000000E+01  1.00800000E+00  1.00800000E+00
  0.00000000E+00  1.60000000E+01  1.00800000E+00  1.00800000E+00  0.00000000E+00
  1.60000000E+01  1.00800000E+00  1.00800000E+00  0.00000000E+00  1.60000000E+01
  1.00800000E+00  1.00800000E+00  0.00000000E+00  1.60000000E+01  1.00800000E+00
  1.00800000E+00  0.00000000E+00  1.60000000E+01  1.00800000E+00  1.00800000E+00
  0.00000000E+00  1.60000000E+01  1.00800000E+00  1.00800000E+00  0.00000000E+00
  1.60000000E+01  1.00800000E+00  1.00800000E+00  0.00000000E+00  1.60000000E+01
  1.00800000E+00  1.00800000E+00  0.00000000E+00  1.60000000E+01  1.00800000E+00
  1.00800000E+00  0.00000000E+00  1.60000000E+01  1.00800000E+00  1.00800000E+00
  0.00000000E+00  1.60000000E+01  1.00800000E+00  1.00800000E+00  0.00000000E+00
  1.60000000E+01  1.00800000E+00  1.00800000E+00  0.00000000E+00  1.60000000E+01
  1.00800000E+00  1.00800000E+00  0.00000000E+00  1.60000000E+01  1.00800000E+00
  1.00800000E+00  0.00000000E+00  1.60000000E+01  1.00800000E+00  1.00800000E+00
  0.00000000E+00  1.60000000E+01  1.00800000E+00  1.00800000E+00  0.00000000E+00
  1.60000000E+01  1.00800000E+00  1.00800000E+00  0.00000000E+00  1.60000000E+01
  1.00800000E+00  1.00800000E+00  0.00000000E+00  1.60000000E+01  1.00800000E+00
  1.00800000E+00  0.00000000E+00  1.60000000E+01  1.00800000E+00  1.00800000E+00
  0.00000000E+00  1.60000000E+01  1.00800000E+00  1.00800000E+00  0.00000000E+00
  1.60000000E+01  1.00800000E+00  1.00800000E+00  0.00000000E+00  1.60000000E+01
  1.00800000E+00  1.00800000E+00  0.00000000E+00  1.60000000E+01  1.00800000E+00
  1.00800000E+00  0.00000000E+00  1.60000000E+01  1.00800000E+00  1.00800000E+00
  0.00000000E+00  1.60000000E+01  1.00800000E+00  1.00800000E+00  0.00000000E+00
  1.60000000E+01  1.00800000E+00  1.00800000E+00  0.00000000E+00  1.60000000E+01
  1.00800000E+00  1.00800000E+00  0.00000000E+00  1.60000000E+01  1.00800000E+00
  1.00800000E+00  0.00000000E+00  1.60000000E+01  1.00800000E+00  1.00800000E+00
  0.00000000E+00  1.60000000E+01  1.00800000E+00  1.00800000E+00  0.00000000E+00
  1.60000000E+01  1.00800000E+00  1.00800000E+00  0.00000000E+00  1.60000000E+01
  1.00800000E+00  1.00800000E+00  0.00000000E+00  1.60000000E+01  1.00800000E+00
  1.00800000E+00  0.00000000E+00  1.60000000E+01  1.00800000E+00  1.00800000E+00
  0.00000000E+00  1.60000000E+01  1.00800000E+00  1.00800000E+00  0.00000000E+00
  1.60000000E+01  1.00800000E+00  1.00800000E+00  0.00000000E+00  1.60000000E+01
  1.00800000E+00  1.00800000E+00  0.00000000E+00  1.60000000E+01  1.00800000E+00
  1.00800000E+00  0.00000000E+00  1.60000000E+01  1.00800000E+00  1.00800000E+00
  0.00000000E+00  1.60000000E+01  1.00800000E+00  1.00800000E+00  0.00000000E+00
  1.60000000E+01  1.00800000E+00  1.00800000E+00  0.00000000E+00  1.60000000E+01
  1.00800000E+00  1.00800000E+00  0.00000000E+00  1.60000000E+01  1.00800000E+00
  1.00800000E+00  0.00000000E+00  1.60000000E+01  1.00800000E+00  1.00800000E+00
  0.00000000E+00  1.60000000E+01  1.00800000E+00  1.00800000E+00  0.00000000E+00
  1.60000000E+01  1.00800000E+00  1.00800000E+00  0.00000000E+00  1.60000000E+01
  1.00800000E+00  1.00800000E+00  0.00000000E+00  1.60000000E+01  1.00800000E+00
  1.00800000E+00  0.00000000E+00  1.60000000E+01  1.00800000E+00  1.00800000E+00
  0.00000000E+00  1.60000000E+01  1.00800000E+00  1.00800000E+00  0.00000000E+00
  1.60000000E+01  1.00800000E+00  1.00800000E+00  0.00000000E+00  1.60000000E+01
  1.00800000E+00  1.00800000E+00  0.00000000E+00  1.60000000E+01  1.00800000E+00
  1.00800000E+00  0.00000000E+00  1.60000000E+01  1.00800000E+00  1.00800000E+00
  0.00000000E+00  1.60000000E+01  1.00800000E+00  1.00800000E+00  0.00000000E+00
  1.60000000E+01  1.00800000E+00  1.00800000E+00  0.00000000E+00  1.60000000E+01
  1.00800000E+00  1.00800000E+00  0.00000000E+00  1.60000000E+01  1.00800000E+00
  1.00800000E+00  0.00000000E+00  1.60000000E+01  1.00800000E+00  1.00800000E+00
  0.00000000E+00  1.60000000E+01  1.00800000E+00  1.00800000E+00  0.00000000E+00
  1.60000000E+01  1.00800000E+00  1.00800000E+00  0.00000000E+00  1.60000000E+01
  1.00800000E+00  1.00800000E+00  0.00000000E+00  1.60000000E+01  1.00800000E+00
  1.00800000E+00  0.00000000E+00  1.60000000E+01  1.00800000E+00  1.00800000E+00
  0.00000000E+00  1.60000000E+01  1.00800000E+00  1.00800000E+00  0.00000000E+00
  1.60000000E+01  1.00800000E+00  1.00800000E+00  0.00000000E+00  1.60000000E+01
  1.00800000E+00  1.00800000E+00  0.00000000E+00  1.60000000E+01  1.00800000E+00
  1.00800000E+00  0.00000000E+00  1.60000000E+01  1.00800000E+00  1.00800000E+00
  0.00000000E+00  1.60000000E+01  1.00800000E+00  1.00800000E+00  0.00000000E+00
  1.60000000E+01  1.00800000E+00  1.00800000E+00  0.00000000E+00  1.60000000E+01
  1.00800000E+00  1.00800000E+00  0.00000000E+00  1.60000000E+01  1.00800000E+00
  1.00800000E+00  0.00000000E+00  1.60000000E+01  1.00800000E+00  1.00800000E+00
  0.00000000E+00  1.60000000E+01  1.00800000E+00  1.00800000E+00  0.00000000E+00
  1.60000000E+01  1.00800000E+00  1.00800000E+00  0.00000000E+00  1.60000000E+01
  1.00800000E+00  1.00800000E+00  0.00000000E+00  1.60000000E+01  1.00800000E+00
  1.00800000E+00  0.00000000E+00  1.60000000E+01  1.00800000E+00  1.00800000E+00
  0.00000000E+00  1.60000000E+01  1.00800000E+00  1.00800000E+00  0.00000000E+00
  1.60000000E+01  1.00800000E+00  1.00800000E+00  0.00000000E+00  1.60000000E+01
  1.00800000E+00  1.00800000E+00  0.00000000E+00  1.60000000E+01  1.00800000E+00
  1.00800000E+00  0.00000000E+00  1.60000000E+01  1.00800000E+00  1.00800000E+00
  0.00000000E+00  1.60000000E+01  1.00800000E+00  1.00800000E+00  0.00000000E+00
  1.60000000E+01  1.00800000E+00  1.00800000E+00  0.00000000E+00  1.60000000E+01
  1.00800000E+00  1.00800000E+00  0.00000000E+00  1.60000000E+01  1.00800000E+00
  1.00800000E+00  0.00000000E+00  1.60000000E+01  1.00800000E+00  1.00800000E+00
  0.00000000E+00  1.60000000E+01  1.00800000E+00  1.00800000E+00  0.00000000E+00
  1.60000000E+01  1.00800000E+00  1.00800000E+00  0.00000000E+00  1.60000000E+01
  1.00800000E+00  1.00800000E+00  0.00000000E+00  1.60000000E+01  1.00800000E+00
  1.00800000E+00  0.00000000E+00  1.60000000E+01  1.00800000E+00  1.00800000E+00
  0.00000000E+00  1.60000000E+01  1.00800000E+00  1.00800000E+00  0.00000000E+00
  1.60000000E+01  1.00800000E+00  1.00800000E+00  0.00000000E+00  1.60000000E+01
  1.00800000E+00  1.00800000E+00  0.00000000E+00  1.60000000E+01  1.00800000E+00
  1.00800000E+00  0.00000000E+00  1.60000000E+01  1.00800000E+00  1.00800000E+00
  0.00000000E+00  1.60000000E+01  1.00800000E+00  1.00800000E+00  0.00000000E+00
  1.60000000E+01  1.00800000E+00  1.00800000E+00  0.00000000E+00  1.60000000E+01
  1.00800000E+00  1.00800000E+00  0.00000000E+00  1.60000000E+01  1.00800000E+00
  1.00800000E+00  0.00000000E+00  1.60000000E+01  1.00800000E+00  1.00800000E+00
  0.00000000E+00  1.60000000E+01  1.00800000E+00  1.00800000E+00  0.00000000E+00
  1.60000000E+01  1.00800000E+00  1.00800000E+00  0.00000000E+00  1.60000000E+01
  1.00800000E+00  1.00800000E+00  0.00000000E+00  1.60000000E+01  1.00800000E+00
  1.00800000E+00  0.00000000E+00  1.60000000E+01  1.00800000E+00  1.00800000E+00
  0.00000000E+00  1.60000000E+01  1.00800000E+00  1.00800000E+00  0.00000000E+00
  1.60000000E+01  1.00800000E+00  1.00800000E+00  0.00000000E+00  1.60000000E+01
  1.00800000E+00  1.00800000E+00  0.00000000E+00  1.60000000E+01  1.00800000E+00
  1.00800000E+00  0.00000000E+00  1.60000000E+01  1.00800000E+00  1.00800000E+00
  0.00000000E+00  1.60000000E+01  1.00800000E+00  1.00800000E+00  0.00000000E+00
  1.60000000E+01  1.00800000E+00  1.00800000E+00  0.00000000E+00  1.60000000E+01
  1.00800000E+00  1.00800000E+00  0.00000000E+00  1.60000000E+01  1.00800000E+00
  1.00800000E+00  0.00000000E+00  1.60000000E+01  1.00800000E+00  1.00800000E+00
  0.00000000E+00  1.60000000E+01  1.00800000E+00  1.00800000E+00  0.00000000E+00
  1.60000000E+01  1.00800000E+00  1.00800000E+00  0.00000000E+00  1.60000000E+01
  1.00800000E+00  1.00800000E+00  0.00000000E+00  1.60000000E+01  1.00800000E+00
  1.00800000E+00  0.00000000E+00  1.60000000E+01  1.00800000E+00  1.00800000E+00
  0.00000000E+00  1.60000000E+01  1.00800000E+00  1.00800000E+00  0.00000000E+00
  1.60000000E+01  1.00800000E+00  1.00800000E+00  0.00000000E+00  1.60000000E+01
  1.00800000E+00  1.00800000E+00  0.00000000E+00  1.60000000E+01  1.00800000E+00
  1.00800000E+00  0.00000000E+00  1.60000000E+01  1.00800000E+00  1.00800000E+00
  0.00000000E+00  1.60000000E+01  1.00800000E+00  1.00800000E+00  0.00000000E+00
  1.60000000E+01  1.00800000E+00  1.00800000E+00  0.00000000E+00  1.60000000E+01
  1.00800000E+00  1.00800000E+00  0.00000000E+00  1.60000000E+01  1.00800000E+00
  1.00800000E+00  0.00000000E+00  1.60000000E+01  1.00800000E+00  1.00800000E+00
  0.00000000E+00  1.60000000E+01  1.00800000E+00  1.00800000E+00  0.00000000E+00
  1.60000000E+01  1.00800000E+00  1.00800000E+00  0.00000000E+00  1.60000000E+01
  1.00800000E+00  1.00800000E+00  0.00000000E+00  1.60000000E+01  1.00800000E+00
  1.00800000E+00  0.00000000E+00  1.60000000E+01  1.00800000E+00  1.00800000E+00
  0.00000000E+00  1.60000000E+01  1.00800000E+00  1.00800000E+00  0.00000000E+00
  1.60000000E+01  1.00800000E+00  1.00800000E+00  0.00000000E+00  1.60000000E+01
  1.00800000E+00  1.00800000E+00  0.00000000E+00  1.60000000E+01  1.00800000E+00
  1.00800000E+00  0.00000000E+00  1.60000000E+01  1.00800000E+00  1.00800000E+00
  0.00000000E+00  1.60000000E+01  1.00800000E+00  1.00800000E+00  0.00000000E+00
  1.60000000E+01  1.00800000E+00  1.00800000E+00  0.00000000E+00  1.60000000E+01
  1.00800000E+00  1.00800000E+00  0.00000000E+00  1.60000000E+01  1.00800000E+00
  1.00800000E+00  0.00000000E+00  1.60000000E+01  1.00800000E+00  1.00800000E+00
  0.00000000E+00  1.60000000E+01  1.00800000E+00  1.00800000E+00  0.00000000E+00
  1.60000000E+01  1.00800000E+00  1.00800000E+00  0.00000000E+00  1.60000000E+01
  1.00800000E+00  1.00800000E+00  0.00000000E+00  1.60000000E+01  1.00800000E+00
  1.00800000E+00  0.00000000E+00  1.60000000E+01  1.00800000E+00  1.00800000E+00
  0.00000000E+00  1.60000000E+01  1.00800000E+00  1.00800000E+00  0.00000000E+00
  1.60000000E+01  1.00800000E+00  1.00800000E+00  0.00000000E+00  1.60000000E+01
  1.00800000E+00  1.00800000E+00  0.00000000E+00  1.60000000E+01  1.00800000E+00
  1.00800000E+00  0.00000000E+00  1.60000000E+01  1.00800000E+00  1.00800000E+00
  0.00000000E+00  1.60000000E+01  1.00800000E+00  1.00800000E+00  0.00000000E+00
  1.60000000E+01  1.00800000E+00  1.00800000E+00  0.00000000E+00  1.60000000E+01
  1.00800000E+00  1.00800000E+00  0.00000000E+00  1.60000000E+01  1.00800000E+00
  1.00800000E+00  0.00000000E+00  1.60000000E+01  1.00800000E+00  1.00800000E+00
  0.00000000E+00  1.60000000E+01  1.00800000E+00  1.00800000E+00  0.00000000E+00
  1.60000000E+01  1.00800000E+00  1.00800000E+00  0.00000000E+00  1.60000000E+01
  1.00800000E+00  1.00800000E+00  0.00000000E+00  1.60000000E+01  1.00800000E+00
  1.00800000E+00  0.00000000E+00  1.60000000E+01  1.00800000E+00  1.00800000E+00
  0.00000000E+00  1.60000000E+01  1.00800000E+00  1.00800000E+00  0.00000000E+00
  1.60000000E+01  1.00800000E+00  1.00800000E+00  0.00000000E+00  1.60000000E+01
  1.00800000E+00  1.00800000E+00  0.00000000E+00  1.60000000E+01  1.00800000E+00
  1.00800000E+00  0.00000000E+00  1.60000000E+01  1.00800000E+00  1.00800000E+00
  0.00000000E+00  1.60000000E+01  1.00800000E+00  1.00800000E+00  0.00000000E+00
  1.60000000E+01  1.00800000E+00  1.00800000E+00  0.00000000E+00  1.60000000E+01
  1.00800000E+00  1.00800000E+00  0.00000000E+00  1.60000000E+01  1.00800000E+00
  1.00800000E+00  0.00000000E+00  1.60000000E+01  1.00800000E+00  1.00800000E+00
  0.00000000E+00  1.60000000E+01  1.00800000E+00  1.00800000E+00  0.00000000E+00
  1.60000000E+01  1.00800000E+00  1.00800000E+00  0.00000000E+00  1.60000000E+01
  1.00800000E+00  1.00800000E+00  0.00000000E+00  1.60000000E+01  1.00800000E+00
  1.00800000E+00  0.00000000E+00  1.60000000E+01  1.00800000E+00  1.00800000E+00
  0.00000000E+00  1.60000000E+01  1.00800000E+00  1.00800000E+00  0.00000000E+00
  1.60000000E+01  1.00800000E+00  1.00800000E+00  0.00000000E+00  1.60000000E+01
  1.00800000E+00  1.00800000E+00  0.00000000E+00  1.60000000E+01  1.00800000E+00
  1.00800000E+00  0.00000000E+00  1.60000000E+01  1.00800000E+00  1.00800000E+00
  0.00000000E+00  1.60000000E+01  1.00800000E+00  1.00800000E+00  0.00000000E+00
  1.60000000E+01  1.00800000E+00  1.00800000E+00  0.00000000E+00  1.60000000E+01
  1.00800000E+00  1.00800000E+00  0.00000000E+00  1.60000000E+01  1.00800000E+00
  1.00800000E+00  0.00000000E+00  1.60000000E+01  1.00800000E+00  1.00800000E+00
  0.00000000E+00  1.60000000E+01  1.00800000E+00  1.00800000E+00  0.00000000E+00
  1.60000000E+01  1.00800000E+00  1.00800000E+00  0.00000000E+00  1.60000000E+01
  1.00800000E+00  1.00800000E+00  0.00000000E+00  1.60000000E+01  1.00800000E+00
  1.00800000E+00  0.00000000E+00  1.60000000E+01  1.00800000E+00  1.00800000E+00
  0.00000000E+00  1.60000000E+01  1.00800000E+00  1.00800000E+00  0.00000000E+00
  1.60000000E+01  1.00800000E+00  1.00800000E+00  0.00000000E+00  1.60000000E+01
  1.00800000E+00  1.00800000E+00  0.00000000E+00  1.60000000E+01  1.00800000E+00
  1.00800000E+00  0.00000000E+00  1.60000000E+01  1.00800000E+00  1.00800000E+00
  0.00000000E+00  1.60000000E+01  1.00800000E+00  1.00800000E+00  0.00000000E+00
  1.60000000E+01  1.00800000E+00  1.00800000E+00  0.00000000E+00  1.60000000E+01
  1.00800000E+00  1.00800000E+00  0.00000000E+00  1.60000000E+01  1.00800000E+00
  1.00800000E+00  0.00000000E+00  1.60000000E+01  1.00800000E+00  1.00800000E+00
  0.00000000E+00  1.60000000E+01  1.00800000E+00  1.00800000E+00  0.00000000E+00
  1.60000000E+01  1.00800000E+00  1.00800000E+00  0.00000000E+00  1.60000000E+01
  1.00800000E+00  1.00800000E+00  0.00000000E+00  1.60000000E+01  1.00800000E+00
  1.00800000E+00  0.00000000E+00  1.60000000E+01  1.00800000E+00  1.00800000E+00
  0.00000000E+00  1.60000000E+01  1.00800000E+00  1.00800000E+00  0.00000000E+00
  1.60000000E+01  1.00800000E+00  1.00800000E+00  0.00000000E+00  1.60000000E+01
  1.00800000E+00  1.00800000E+00  0.00000000E+00  1.60000000E+01  1.00800000E+00
  1.00800000E+00  0.00000000E+00  1.60000000E+01  1.00800000E+00  1.00800000E+00
  0.00000000E+00  1.60000000E+01  1.00800000E+00  1.00800000E+00  0.00000000E+00
  1.60000000E+01  1.00800000E+00  1.00800000E+00  0.00000000E+00  1.60000000E+01
  1.00800000E+00  1.00800000E+00  0.00000000E+00  1.60000000E+01  1.00800000E+00
  1.00800000E+00  0.00000000E+00  1.60000000E+01  1.00800000E+00  1.00800000E+00
  0.00000000E+00  1.60000000E+01  1.00800000E+00  1.00800000E+00  0.00000000E+00
  1.60000000E+01  1.00800000E+00  1.00800000E+00  0.00000000E+00  1.60000000E+01
  1.00800000E+00  1.00800000E+00  0.00000000E+00  1.60000000E+01  1.00800000E+00
  1.00800000E+00  0.00000000E+00  1.60000000E+01  1.00800000E+00  1.00800000E+00
  0.00000000E+00  1.60000000E+01  1.00800000E+00  1.00800000E+00  0.00000000E+00
  1.60000000E+01  1.00800000E+00  1.00800000E+00  0.00000000E+00  1.60000000E+01
  1.00800000E+00  1.00800000E+00  0.00000000E+00  1.60000000E+01  1.00800000E+00
  1.00800000E+00  0.00000000E+00  1.60000000E+01  1.00800000E+00  1.00800000E+00
  0.00000000E+00  1.60000000E+01  1.00800000E+00  1.00800000E+00  0.00000000E+00
  1.60000000E+01  1.00800000E+00  1.00800000E+00  0.00000000E+00  1.60000000E+01
  1.00800000E+00  1.00800000E+00  0.00000000E+00  1.60000000E+01  1.00800000E+00
  1.00800000E+00  0.00000000E+00  1.60000000E+01  1.00800000E+00  1.00800000E+00
  0.00000000E+00  1.60000000E+01  1.00800000E+00  1.00800000E+00  0.00000000E+00
  1.60000000E+01  1.00800000E+00  1.00800000E+00  0.00000000E+00  1.60000000E+01
  1.00800000E+00  1.00800000E+00  0.00000000E+00  1.60000000E+01  1.00800000E+00
  1.00800000E+00  0.00000000E+00  1.60000000E+01  1.00800000E+00  1.00800000E+00
  0.00000000E+00  1.60000000E+01  1.00800000E+00  1.00800000E+00  0.00000000E+00
  1.60000000E+01  1.00800000E+00  1.00800000E+00  0.00000000E+00  1.60000000E+01
  1.00800000E+00  1.00800000E+00  0.00000000E+00  1.60000000E+01  1.00800000E+00
  1.00800000E+00  0.00000000E+00  1.60000000E+01  1.00800000E+00  1.00800000E+00
  0.00000000E+00  1.60000000E+01  1.00800000E+00  1.00800000E+00  0.00000000E+00
  1.60000000E+01  1.00800000E+00  1.00800000E+00  0.00000000E+00  1.60000000E+01
  1.00800000E+00  1.00800000E+00  0.00000000E+00  1.60000000E+01  1.00800000E+00
  1.00800000E+00  0.00000000E+00  1.60000000E+01  1.00800000E+00  1.00800000E+00
  0.00000000E+00  1.60000000E+01  1.00800000E+00  1.00800000E+00  0.00000000E+00
  1.60000000E+01  1.00800000E+00  1.00800000E+00  0.00000000E+00  1.60000000E+01
  1.00800000E+00  1.00800000E+00  0.00000000E+00  1.60000000E+01  1.00800000E+00
  1.00800000E+00  0.00000000E+00  1.60000000E+01  1.00800000E+00  1.00800000E+00
  0.00000000E+00  1.60000000E+01  1.00800000E+00  1.00800000E+00  0.00000000E+00
  1.60000000E+01  1.00800000E+00  1.00800000E+00  0.00000000E+00  1.60000000E+01
  1.00800000E+00  1.00800000E+00  0.00000000E+00  1.60000000E+01  1.00800000E+00
  1.00800000E+00  0.00000000E+00  1.60000000E+01  1.00800000E+00  1.00800000E+00
  0.00000000E+00  1.60000000E+01  1.00800000E+00  1.00800000E+00  0.00000000E+00
  1.60000000E+01  1.00800000E+00  1.00800000E+00  0.00000000E+00  1.60000000E+01
  1.00800000E+00  1.00800000E+00  0.00000000E+00  1.60000000E+01  1.00800000E+00
  1.00800000E+00  0.00000000E+00  1.60000000E+01  1.00800000E+00  1.00800000E+00
  0.00000000E+00  1.60000000E+01  1.00800000E+00  1.00800000E+00  0.00000000E+00
  1.60000000E+01  1.00800000E+00  1.00800000E+00  0.00000000E+00  1.60000000E+01
  1.00800000E+00  1.00800000E+00  0.00000000E+00  1.60000000E+01  1.00800000E+00
  1.00800000E+00  0.00000000E+00  1.60000000E+01  1.00800000E+00  1.00800000E+00
  0.00000000E+00  1.60000000E+01  1.00800000E+00  1.00800000E+00  0.00000000E+00
  1.60000000E+01  1.00800000E+00  1.00800000E+00  0.00000000E+00  1.60000000E+01
  1.00800000E+00  1.00800000E+00  0.00000000E+00  1.60000000E+01  1.00800000E+00
  1.00800000E+00  0.00000000E+00  1.60000000E+01  1.00800000E+00  1.00800000E+00
  0.00000000E+00  1.60000000E+01  1.00800000E+00  1.00800000E+00  0.00000000E+00
  1.60000000E+01  1.00800000E+00  1.00800000E+00  0.00000000E+00  1.60000000E+01
  1.00800000E+00  1.00800000E+00  0.00000000E+00  1.60000000E+01  1.00800000E+00
  1.00800000E+00  0.00000000E+00  1.60000000E+01  1.00800000E+00  1.00800000E+00
  0.00000000E+00  1.60000000E+01  1.00800000E+00  1.00800000E+00  0.00000000E+00
  1.60000000E+01  1.00800000E+00  1.00800000E+00  0.00000000E+00  1.60000000E+01
  1.00800000E+00  1.00800000E+00  0.00000000E+00  1.60000000E+01  1.00800000E+00
  1.00800000E+00  0.00000000E+00  1.60000000E+01  1.00800000E+00  1.00800000E+00
  0.00000000E+00  1.60000000E+01  1.00800000E+00  1.00800000E+00  0.00000000E+00
  1.60000000E+01  1.00800000E+00  1.00800000E+00  0.00000000E+00  1.60000000E+01
  1.00800000E+00  1.00800000E+00  0.00000000E+00  1.60000000E+01  1.00800000E+00
  1.00800000E+00  0.00000000E+00  1.60000000E+01  1.00800000E+00  1.00800000E+00
  0.00000000E+00  1.60000000E+01  1.00800000E+00  1.00800000E+00  0.00000000E+00
  1.60000000E+01  1.00800000E+00  1.00800000E+00  0.00000000E+00  1.60000000E+01
  1.00800000E+00  1.00800000E+00  0.00000000E+00  1.60000000E+01  1.00800000E+00
  1.00800000E+00  0.00000000E+00  1.60000000E+01  1.00800000E+00  1.00800000E+00
  0.00000000E+00  1.60000000E+01  1.00800000E+00  1.00800000E+00  0.00000000E+00
  1.60000000E+01  1.00800000E+00  1.00800000E+00  0.00000000E+00  1.60000000E+01
  1.00800000E+00  1.00800000E+00  0.00000000E+00  1.60000000E+01  1.00800000E+00
  1.00800000E+00  0.00000000E+00  1.60000000E+01  1.00800000E+00  1.00800000E+00
  0.00000000E+00  1.60000000E+01  1.00800000E+00  1.00800000E+00  0.00000000E+00
  1.60000000E+01  1.00800000E+00  1.00800000E+00  0.00000000E+00  1.60000000E+01
  1.00800000E+00  1.00800000E+00  0.00000000E+00  1.60000000E+01  1.00800000E+00
  1.00800000E+00  0.00000000E+00  1.60000000E+01  1.00800000E+00  1.00800000E+00
  0.00000000E+00  1.60000000E+01  1.00800000E+00  1.00800000E+00  0.00000000E+00
  1.60000000E+01  1.00800000E+00  1.00800000E+00  0.00000000E+00  1.60000000E+01
  1.00800000E+00  1.00800000E+00  0.00000000E+00  1.60000000E+01  1.00800000E+00
  1.00800000E+00  0.00000000E+00  1.60000000E+01  1.00800000E+00  1.00800000E+00
  0.00000000E+00  1.60000000E+01  1.00800000E+00  1.00800000E+00  0.00000000E+00
  1.60000000E+01  1.00800000E+00  1.00800000E+00  0.00000000E+00  1.60000000E+01
  1.00800000E+00  1.00800000E+00  0.00000000E+00  1.60000000E+01  1.00800000E+00
  1.00800000E+00  0.00000000E+00  1.60000000E+01  1.00800000E+00  1.00800000E+00
  0.00000000E+00  1.60000000E+01  1.00800000E+00  1.00800000E+00  0.00000000E+00
  1.60000000E+01  1.00800000E+00  1.00800000E+00  0.00000000E+00  1.60000000E+01
  1.00800000E+00  1.00800000E+00  0.00000000E+00  1.60000000E+01  1.00800000E+00
  1.00800000E+00  0.00000000E+00  1.60000000E+01  1.00800000E+00  1.00800000E+00
  0.00000000E+00  1.60000000E+01  1.00800000E+00  1.00800000E+00  0.00000000E+00
  1.60000000E+01  1.00800000E+00  1.00800000E+00  0.00000000E+00  1.60000000E+01
  1.00800000E+00  1.00800000E+00  0.00000000E+00  1.60000000E+01  1.00800000E+00
  1.00800000E+00  0.00000000E+00  1.60000000E+01  1.00800000E+00  1.00800000E+00
  0.00000000E+00  1.60000000E+01  1.00800000E+00  1.00800000E+00  0.00000000E+00
  1.60000000E+01  1.00800000E+00  1.00800000E+00  0.00000000E+00  1.60000000E+01
  1.00800000E+00  1.00800000E+00  0.00000000E+00  1.60000000E+01  1.00800000E+00
  1.00800000E+00  0.00000000E+00  1.60000000E+01  1.00800000E+00  1.00800000E+00
  0.00000000E+00  1.60000000E+01  1.00800000E+00  1.00800000E+00  0.00000000E+00
  1.60000000E+01  1.00800000E+00  1.00800000E+00  0.00000000E+00  1.60000000E+01
  1.00800000E+00  1.00800000E+00  0.00000000E+00  1.60000000E+01  1.00800000E+00
  1.00800000E+00  0.00000000E+00  1.60000000E+01  1.00800000E+00  1.00800000E+00
  0.00000000E+00  1.60000000E+01  1.00800000E+00  1.00800000E+00  0.00000000E+00
  1.60000000E+01  1.00800000E+00  1.00800000E+00  0.00000000E+00  1.60000000E+01
  1.00800000E+00  1.00800000E+00  0.00000000E+00  1.60000000E+01  1.00800000E+00
  1.00800000E+00  0.00000000E+00  1.60000000E+01  1.00800000E+00  1.00800000E+00
  0.00000000E+00  1.60000000E+01  1.00800000E+00  1.00800000E+00  0.00000000E+00
  1.60000000E+01  1.00800000E+00  1.00800000E+00  0.00000000E+00  1.60000000E+01
  1.00800000E+00  1.00800000E+00  0.00000000E+00  1.60000000E+01  1.00800000E+00
  1.00800000E+00  0.00000000E+00  1.60000000E+01  1.00800000E+00  1.00800000E+00
  0.00000000E+00  1.60000000E+01  1.00800000E+00  1.00800000E+00  0.00000000E+00
  1.60000000E+01  1.00800000E+00  1.00800000E+00  0.00000000E+00  1.60000000E+01
  1.00800000E+00  1.00800000E+00  0.00000000E+00  1.60000000E+01  1.00800000E+00
  1.00800000E+00  0.00000000E+00  1.60000000E+01  1.00800000E+00  1.00800000E+00
  0.00000000E+00  1.60000000E+01  1.00800000E+00  1.00800000E+00  0.00000000E+00
  1.60000000E+01  1.00800000E+00  1.00800000E+00  0.00000000E+00  1.60000000E+01
  1.00800000E+00  1.00800000E+00  0.00000000E+00  1.60000000E+01  1.00800000E+00
  1.00800000E+00  0.00000000E+00  1.60000000E+01  1.00800000E+00  1.00800000E+00
  0.00000000E+00  1.60000000E+01  1.00800000E+00  1.00800000E+00  0.00000000E+00
  1.60000000E+01  1.00800000E+00  1.00800000E+00  0.00000000E+00  1.60000000E+01
  1.00800000E+00  1.00800000E+00  0.00000000E+00  1.60000000E+01  1.00800000E+00
  1.00800000E+00  0.00000000E+00  1.60000000E+01  1.00800000E+00  1.00800000E+00
  0.00000000E+00  1.60000000E+01  1.00800000E+00  1.00800000E+00  0.00000000E+00
  1.60000000E+01  1.00800000E+00  1.00800000E+00  0.00000000E+00  1.60000000E+01
  1.00800000E+00  1.00800000E+00  0.00000000E+00  1.60000000E+01  1.00800000E+00
  1.00800000E+00  0.00000000E+00  1.60000000E+01  1.00800000E+00  1.00800000E+00
  0.00000000E+00  1.60000000E+01  1.00800000E+00  1.00800000E+00  0.00000000E+00
  1.60000000E+01  1.00800000E+00  1.00800000E+00  0.00000000E+00  1.60000000E+01
  1.00800000E+00  1.00800000E+00  0.00000000E+00  1.60000000E+01  1.00800000E+00
  1.00800000E+00  0.00000000E+00  1.60000000E+01  1.00800000E+00  1.00800000E+00
  0.00000000E+00  1.60000000E+01  1.00800000E+00  1.00800000E+00  0.00000000E+00
  1.60000000E+01  1.00800000E+00  1.00800000E+00  0.00000000E+00  1.60000000E+01
  1.00800000E+00  1.00800000E+00  0.00000000E+00  1.60000000E+01  1.00800000E+00
  1.00800000E+00  0.00000000E+00  1.60000000E+01  1.00800000E+00  1.00800000E+00
  0.00000000E+00  1.60000000E+01  1.00800000E+00  1.00800000E+00  0.00000000E+00
  1.60000000E+01  1.00800000E+00  1.00800000E+00  0.00000000E+00  1.60000000E+01
  1.00800000E+00  1.00800000E+00  0.00000000E+00  1.60000000E+01  1.00800000E+00
  1.00800000E+00  0.00000000E+00  1.60000000E+01  1.00800000E+00  1.00800000E+00
  0.00000000E+00  1.60000000E+01  1.00800000E+00  1.00800000E+00  0.00000000E+00
  1.60000000E+01  1.00800000E+00  1.00800000E+00  0.00000000E+00  1.60000000E+01
  1.00800000E+00  1.00800000E+00  0.00000000E+00  1.60000000E+01  1.00800000E+00
  1.00800000E+00  0.00000000E+00  1.60000000E+01  1.00800000E+00  1.00800000E+00
  0.00000000E+00  1.60000000E+01  1.00800000E+00  1.00800000E+00  0.00000000E+00
  1.60000000E+01  1.00800000E+00  1.00800000E+00  0.00000000E+00  1.60000000E+01
  1.00800000E+00  1.00800000E+00  0.00000000E+00  1.60000000E+01  1.00800000E+00
  1.00800000E+00  0.00000000E+00  1.60000000E+01  1.00800000E+00  1.00800000E+00
  0.00000000E+00  1.60000000E+01  1.00800000E+00  1.00800000E+00  0.00000000E+00
  1.60000000E+01  1.00800000E+00  1.00800000E+00  0.00000000E+00  1.60000000E+01
  1.00800000E+00  1.00800000E+00  0.00000000E+00  1.60000000E+01  1.00800000E+00
  1.00800000E+00  0.00000000E+00  1.60000000E+01  1.00800000E+00  1.00800000E+00
  0.00000000E+00  1.60000000E+01  1.00800000E+00  1.00800000E+00  0.00000000E+00
  1.60000000E+01  1.00800000E+00  1.00800000E+00  0.00000000E+00  1.60000000E+01
  1.00800000E+00  1.00800000E+00  0.00000000E+00  1.60000000E+01  1.00800000E+00
  1.00800000E+00  0.00000000E+00  1.60000000E+01  1.00800000E+00  1.00800000E+00
  0.00000000E+00  1.60000000E+01  1.00800000E+00  1.00800000E+00  0.00000000E+00
  1.60000000E+01  1.00800000E+00  1.00800000E+00  0.00000000E+00  1.60000000E+01
  1.00800000E+00  1.00800000E+00  0.00000000E+00  1.60000000E+01  1.00800000E+00
  1.00800000E+00  0.00000000E+00  1.60000000E+01  1.00800000E+00  1.00800000E+00
  0.00000000E+00  1.60000000E+01  1.00800000E+00  1.00800000E+00  0.00000000E+00
  1.60000000E+01  1.00800000E+00  1.00800000E+00  0.00000000E+00  1.60000000E+01
  1.00800000E+00  1.00800000E+00  0.00000000E+00  1.60000000E+01  1.00800000E+00
  1.00800000E+00  0.00000000E+00  1.60000000E+01  1.00800000E+00  1.00800000E+00
  0.00000000E+00  1.60000000E+01  1.00800000E+00  1.00800000E+00  0.00000000E+00
  1.60000000E+01  1.00800000E+00  1.00800000E+00  0.00000000E+00  1.60000000E+01
  1.00800000E+00  1.00800000E+00  0.00000000E+00  1.60000000E+01  1.00800000E+00
  1.00800000E+00  0.00000000E+00  1.60000000E+01  1.00800000E+00  1.00800000E+00
  0.00000000E+00  1.60000000E+01  1.00800000E+00  1.00800000E+00  0.00000000E+00
  1.60000000E+01  1.00800000E+00  1.00800000E+00  0.00000000E+00  1.60000000E+01
  1.00800000E+00  1.00800000E+00  0.00000000E+00  1.60000000E+01  1.00800000E+00
  1.00800000E+00  0.00000000E+00  1.60000000E+01  1.00800000E+00  1.00800000E+00
  0.00000000E+00  1.60000000E+01  1.00800000E+00  1.00800000E+00  0.00000000E+00
  1.60000000E+01  1.00800000E+00  1.00800000E+00  0.00000000E+00  1.60000000E+01
  1.00800000E+00  1.00800000E+00  0.00000000E+00  1.60000000E+01  1.00800000E+00
  1.00800000E+00  0.00000000E+00  1.60000000E+01  1.00800000E+00  1.00800000E+00
  0.00000000E+00  1.60000000E+01  1.00800000E+00  1.00800000E+00  0.00000000E+00
  1.60000000E+01  1.00800000E+00  1.00800000E+00  0.00000000E+00  1.60000000E+01
  1.00800000E+00  1.00800000E+00  0.00000000E+00  1.60000000E+01  1.00800000E+00
  1.00800000E+00  0.00000000E+00  1.60000000E+01  1.00800000E+00  1.00800000E+00
  0.00000000E+00  1.60000000E+01  1.00800000E+00  1.00800000E+00  0.00000000E+00
  1.60000000E+01  1.00800000E+00  1.00800000E+00  0.00000000E+00  1.60000000E+01
  1.00800000E+00  1.00800000E+00  0.00000000E+00  1.60000000E+01  1.00800000E+00
  1.00800000E+00  0.00000000E+00  1.60000000E+01  1.00800000E+00  1.00800000E+00
  0.00000000E+00  1.60000000E+01  1.00800000E+00  1.00800000E+00  0.00000000E+00
  1.60000000E+01  1.00800000E+00  1.00800000E+00  0.00000000E+00  1.60000000E+01
  1.00800000E+00  1.00800000E+00  0.00000000E+00  1.60000000E+01  1.00800000E+00
  1.00800000E+00  0.00000000E+00  1.60000000E+01  1.00800000E+00  1.00800000E+00
  0.00000000E+00  1.60000000E+01  1.00800000E+00  1.00800000E+00  0.00000000E+00
  1.60000000E+01  1.00800000E+00  1.00800000E+00  0.00000000E+00  1.60000000E+01
  1.00800000E+00  1.00800000E+00  0.00000000E+00  1.60000000E+01  1.00800000E+00
  1.00800000E+00  0.00000000E+00  1.60000000E+01  1.00800000E+00  1.00800000E+00
  0.00000000E+00  1.60000000E+01  1.00800000E+00  1.00800000E+00  0.00000000E+00
  1.60000000E+01  1.00800000E+00  1.00800000E+00  0.00000000E+00  1.60000000E+01
  1.00800000E+00  1.00800000E+00  0.00000000E+00  1.60000000E+01  1.00800000E+00
  1.00800000E+00  0.00000000E+00  1.60000000E+01  1.00800000E+00  1.00800000E+00
  0.00000000E+00  1.60000000E+01  1.00800000E+00  1.00800000E+00  0.00000000E+00
  1.60000000E+01  1.00800000E+00  1.00800000E+00  0.00000000E+00  1.60000000E+01
  1.00800000E+00  1.00800000E+00  0.00000000E+00  1.60000000E+01  1.00800000E+00
  1.00800000E+00  0.00000000E+00  1.60000000E+01  1.00800000E+00  1.00800000E+00
  0.00000000E+00  1.60000000E+01  1.00800000E+00  1.00800000E+00  0.00000000E+00
  1.60000000E+01  1.00800000E+00  1.00800000E+00  0.00000000E+00  1.60000000E+01
  1.00800000E+00  1.00800000E+00  0.00000000E+00  1.60000000E+01  1.00800000E+00
  1.00800000E+00  0.00000000E+00  1.60000000E+01  1.00800000E+00  1.00800000E+00
  0.00000000E+00  1.60000000E+01  1.00800000E+00  1.00800000E+00  0.00000000E+00
  1.60000000E+01  1.00800000E+00  1.00800000E+00  0.00000000E+00  1.60000000E+01
  1.00800000E+00  1.00800000E+00  0.00000000E+00  1.60000000E+01  1.00800000E+00
  1.00800000E+00  0.00000000E+00  1.60000000E+01  1.00800000E+00  1.00800000E+00
  0.00000000E+00  1.60000000E+01  1.00800000E+00  1.00800000E+00  0.00000000E+00
  1.60000000E+01  1.00800000E+00  1.00800000E+00  0.00000000E+00  1.60000000E+01
  1.00800000E+00  1.00800000E+00  0.00000000E+00  1.60000000E+01  1.00800000E+00
  1.00800000E+00  0.00000000E+00  1.60000000E+01  1.00800000E+00  1.00800000E+00
  0.00000000E+00  1.60000000E+01  1.00800000E+00  1.00800000E+00  0.00000000E+00
  1.60000000E+01  1.00800000E+00  1.00800000E+00  0.00000000E+00  1.60000000E+01
  1.00800000E+00  1.00800000E+00  0.00000000E+00  1.60000000E+01  1.00800000E+00
  1.00800000E+00  0.00000000E+00  1.60000000E+01  1.00800000E+00  1.00800000E+00
  0.00000000E+00  1.60000000E+01  1.00800000E+00  1.00800000E+00  0.00000000E+00
  1.60000000E+01  1.00800000E+00  1.00800000E+00  0.00000000E+00  1.60000000E+01
  1.00800000E+00  1.00800000E+00  0.00000000E+00  1.60000000E+01  1.00800000E+00
  1.00800000E+00  0.00000000E+00  1.60000000E+01  1.00800000E+00  1.00800000E+00
  0.00000000E+00  1.60000000E+01  1.00800000E+00  1.00800000E+00  0.00000000E+00
  1.60000000E+01  1.00800000E+00  1.00800000E+00  0.00000000E+00  1.60000000E+01
  1.00800000E+00  1.00800000E+00  0.00000000E+00  1.60000000E+01  1.00800000E+00
  1.00800000E+00  0.00000000E+00  1.60000000E+01  1.00800000E+00  1.00800000E+00
  0.00000000E+00  1.60000000E+01  1.00800000E+00  1.00800000E+00  0.00000000E+00
  1.60000000E+01  1.00800000E+00  1.00800000E+00  0.00000000E+00  1.60000000E+01
  1.00800000E+00  1.00800000E+00  0.00000000E+00  1.60000000E+01  1.00800000E+00
  1.00800000E+00  0.00000000E+00  1.60000000E+01  1.00800000E+00  1.00800000E+00
  0.00000000E+00  1.60000000E+01  1.00800000E+00  1.00800000E+00  0.00000000E+00
  1.60000000E+01  1.00800000E+00  1.00800000E+00  0.00000000E+00  1.60000000E+01
  1.00800000E+00  1.00800000E+00  0.00000000E+00  1.60000000E+01  1.00800000E+00
  1.00800000E+00  0.00000000E+00  1.60000000E+01  1.00800000E+00  1.00800000E+00
  0.00000000E+00  1.60000000E+01  1.00800000E+00  1.00800000E+00  0.00000000E+00
  1.60000000E+01  1.00800000E+00  1.00800000E+00  0.00000000E+00  1.60000000E+01
  1.00800000E+00  1.00800000E+00  0.00000000E+00  1.60000000E+01  1.00800000E+00
  1.00800000E+00  0.00000000E+00  1.60000000E+01  1.00800000E+00  1.00800000E+00
  0.00000000E+00  1.60000000E+01  1.00800000E+00  1.00800000E+00  0.00000000E+00
  1.60000000E+01  1.00800000E+00  1.00800000E+00  0.00000000E+00  1.60000000E+01
  1.00800000E+00  1.00800000E+00  0.00000000E+00  1.60000000E+01  1.00800000E+00
  1.00800000E+00  0.00000000E+00  1.60000000E+01  1.00800000E+00  1.00800000E+00
  0.00000000E+00  1.60000000E+01  1.00800000E+00  1.00800000E+00  0.00000000E+00
  1.60000000E+01  1.00800000E+00  1.00800000E+00  0.00000000E+00  1.60000000E+01
  1.00800000E+00  1.00800000E+00  0.00000000E+00  1.60000000E+01  1.00800000E+00
  1.00800000E+00  0.00000000E+00  1.60000000E+01  1.00800000E+00  1.00800000E+00
  0.00000000E+00  1.60000000E+01  1.00800000E+00  1.00800000E+00  0.00000000E+00
  1.60000000E+01  1.00800000E+00  1.00800000E+00  0.00000000E+00  1.60000000E+01
  1.00800000E+00  1.00800000E+00  0.00000000E+00  1.60000000E+01  1.00800000E+00
  1.00800000E+00  0.00000000E+00  1.60000000E+01  1.00800000E+00  1.00800000E+00
  0.00000000E+00  1.60000000E+01  1.00800000E+00  1.00800000E+00  0.00000000E+00
  1.60000000E+01  1.00800000E+00  1.00800000E+00  0.00000000E+00  1.60000000E+01
  1.00800000E+00  1.00800000E+00  0.00000000E+00  1.60000000E+01  1.00800000E+00
  1.00800000E+00  0.00000000E+00  1.60000000E+01  1.00800000E+00  1.00800000E+00
  0.00000000E+00  1.60000000E+01  1.00800000E+00  1.00800000E+00  0.00000000E+00
  1.60000000E+01  1.00800000E+00  1.00800000E+00  0.00000000E+00  1.60000000E+01
  1.00800000E+00  1.00800000E+00  0.00000000E+00  1.60000000E+01  1.00800000E+00
  1.00800000E+00  0.00000000E+00  1.60000000E+01  1.00800000E+00  1.00800000E+00
  0.00000000E+00  1.60000000E+01  1.00800000E+00  1.00800000E+00  0.00000000E+00
  1.60000000E+01  1.00800000E+00  1.00800000E+00  0.00000000E+00  1.60000000E+01
  1.00800000E+00  1.00800000E+00  0.00000000E+00  1.60000000E+01  1.00800000E+00
  1.00800000E+00  0.00000000E+00  1.60000000E+01  1.00800000E+00  1.00800000E+00
  0.00000000E+00  1.60000000E+01  1.00800000E+00  1.00800000E+00  0.00000000E+00
  1.60000000E+01  1.00800000E+00  1.00800000E+00  0.00000000E+00  1.60000000E+01
  1.00800000E+00  1.00800000E+00  0.00000000E+00  1.60000000E+01  1.00800000E+00
  1.00800000E+00  0.00000000E+00  1.60000000E+01  1.00800000E+00  1.00800000E+00
  0.00000000E+00  1.60000000E+01  1.00800000E+00  1.00800000E+00  0.00000000E+00
  1.60000000E+01  1.00800000E+00  1.00800000E+00  0.00000000E+00  1.60000000E+01
  1.00800000E+00  1.00800000E+00  0.00000000E+00  1.60000000E+01  1.00800000E+00
  1.00800000E+00  0.00000000E+00  1.60000000E+01  1.00800000E+00  1.00800000E+00
  0.00000000E+00  1.60000000E+01  1.00800000E+00  1.00800000E+00  0.00000000E+00
  1.60000000E+01  1.00800000E+00  1.00800000E+00  0.00000000E+00  1.60000000E+01
  1.00800000E+00  1.00800000E+00  0.00000000E+00  1.60000000E+01  1.00800000E+00
  1.00800000E+00  0.00000000E+00  1.60000000E+01  1.00800000E+00  1.00800000E+00
  0.00000000E+00  1.60000000E+01  1.00800000E+00  1.00800000E+00  0.00000000E+00
  1.60000000E+01  1.00800000E+00  1.00800000E+00  0.00000000E+00  1.60000000E+01
  1.00800000E+00  1.00800000E+00  0.00000000E+00  1.60000000E+01  1.00800000E+00
  1.00800000E+00  0.00000000E+00  1.60000000E+01  1.00800000E+00  1.00800000E+00
  0.00000000E+00  1.60000000E+01  1.00800000E+00  1.00800000E+00  0.00000000E+00
  1.60000000E+01  1.00800000E+00  1.00800000E+00  0.00000000E+00  1.60000000E+01
  1.00800000E+00  1.00800000E+00  0.00000000E+00  1.60000000E+01  1.00800000E+00
  1.00800000E+00  0.00000000E+00  1.60000000E+01  1.00800000E+00  1.00800000E+00
  0.00000000E+00  1.60000000E+01  1.00800000E+00  1.00800000E+00  0.00000000E+00
  1.60000000E+01  1.00800000E+00  1.00800000E+00  0.00000000E+00  1.60000000E+01
  1.00800000E+00  1.00800000E+00  0.00000000E+00  1.60000000E+01  1.00800000E+00
  1.00800000E+00  0.00000000E+00  1.60000000E+01  1.00800000E+00  1.00800000E+00
  0.00000000E+00  1.60000000E+01  1.00800000E+00  1.00800000E+00  0.00000000E+00
  1.60000000E+01  1.00800000E+00  1.00800000E+00  0.00000000E+00  1.60000000E+01
  1.00800000E+00  1.00800000E+00  0.00000000E+00  1.60000000E+01  1.00800000E+00
  1.00800000E+00  0.00000000E+00  1.60000000E+01  1.00800000E+00  1.00800000E+00
  0.00000000E+00  1.60000000E+01  1.00800000E+00  1.00800000E+00  0.00000000E+00
  1.60000000E+01  1.00800000E+00  1.00800000E+00  0.00000000E+00  1.60000000E+01
  1.00800000E+00  1.00800000E+00  0.00000000E+00  1.60000000E+01  1.00800000E+00
  1.00800000E+00  0.00000000E+00  1.60000000E+01  1.00800000E+00  1.00800000E+00
  0.00000000E+00  1.60000000E+01  1.00800000E+00  1.00800000E+00  0.00000000E+00
  1.60000000E+01  1.00800000E+00  1.00800000E+00  0.00000000E+00  1.60000000E+01
  1.00800000E+00  1.00800000E+00  0.00000000E+00  1.60000000E+01  1.00800000E+00
  1.00800000E+00  0.00000000E+00  1.60000000E+01  1.00800000E+00  1.00800000E+00
  0.00000000E+00  1.60000000E+01  1.00800000E+00  1.00800000E+00  0.00000000E+00
  1.60000000E+01  1.00800000E+00  1.00800000E+00  0.00000000E+00  1.60000000E+01
  1.00800000E+00  1.00800000E+00  0.00000000E+00  1.60000000E+01  1.00800000E+00
  1.00800000E+00  0.00000000E+00  1.60000000E+01  1.00800000E+00  1.00800000E+00
  0.00000000E+00  1.60000000E+01  1.00800000E+00  1.00800000E+00  0.00000000E+00
  1.60000000E+01  1.00800000E+00  1.00800000E+00  0.00000000E+00  1.60000000E+01
  1.00800000E+00  1.00800000E+00  0.00000000E+00  1.60000000E+01  1.00800000E+00
  1.00800000E+00  0.00000000E+00  1.60000000E+01  1.00800000E+00  1.00800000E+00
  0.00000000E+00  1.60000000E+01  1.00800000E+00  1.00800000E+00  0.00000000E+00
  1.60000000E+01  1.00800000E+00  1.00800000E+00  0.00000000E+00  1.60000000E+01
  1.00800000E+00  1.00800000E+00  0.00000000E+00  1.60000000E+01  1.00800000E+00
  1.00800000E+00  0.00000000E+00  1.60000000E+01  1.00800000E+00  1.00800000E+00
  0.00000000E+00  1.60000000E+01  1.00800000E+00  1.00800000E+00  0.00000000E+00
  1.60000000E+01  1.00800000E+00  1.00800000E+00  0.00000000E+00  1.60000000E+01
  1.00800000E+00  1.00800000E+00  0.00000000E+00  1.60000000E+01  1.00800000E+00
  1.00800000E+00  0.00000000E+00  1.60000000E+01  1.00800000E+00  1.00800000E+00
  0.00000000E+00  1.60000000E+01  1.00800000E+00  1.00800000E+00  0.00000000E+00
  1.60000000E+01  1.00800000E+00  1.00800000E+00  0.00000000E+00  1.60000000E+01
  1.00800000E+00  1.00800000E+00  0.00000000E+00  1.60000000E+01  1.00800000E+00
  1.00800000E+00  0.00000000E+00  1.60000000E+01  1.00800000E+00  1.00800000E+00
  0.00000000E+00  1.60000000E+01  1.00800000E+00  1.00800000E+00  0.00000000E+00
  1.60000000E+01  1.00800000E+00  1.00800000E+00  0.00000000E+00  1.60000000E+01
  1.00800000E+00  1.00800000E+00  0.00000000E+00  1.60000000E+01  1.00800000E+00
  1.00800000E+00  0.00000000E+00  1.60000000E+01  1.00800000E+00  1.00800000E+00
  0.00000000E+00  1.60000000E+01  1.00800000E+00  1.00800000E+00  0.00000000E+00
  1.60000000E+01  1.00800000E+00  1.00800000E+00  0.00000000E+00  1.60000000E+01
  1.00800000E+00  1.00800000E+00  0.00000000E+00  1.60000000E+01  1.00800000E+00
  1.00800000E+00  0.00000000E+00  1.60000000E+01  1.00800000E+00  1.00800000E+00
  0.00000000E+00  1.60000000E+01  1.00800000E+00  1.00800000E+00  0.00000000E+00
  1.60000000E+01  1.00800000E+00  1.00800000E+00  0.00000000E+00  1.60000000E+01
  1.00800000E+00  1.00800000E+00  0.00000000E+00  1.60000000E+01  1.00800000E+00
  1.00800000E+00  0.00000000E+00  1.60000000E+01  1.00800000E+00  1.00800000E+00
  0.00000000E+00  1.60000000E+01  1.00800000E+00  1.00800000E+00  0.00000000E+00
  1.60000000E+01  1.00800000E+00  1.00800000E+00  0.00000000E+00  1.60000000E+01
  1.00800000E+00  1.00800000E+00  0.00000000E+00  1.60000000E+01  1.00800000E+00
  1.00800000E+00  0.00000000E+00  1.60000000E+01  1.00800000E+00  1.00800000E+00
  0.00000000E+00  1.60000000E+01  1.00800000E+00  1.00800000E+00  0.00000000E+00
  1.60000000E+01  1.00800000E+00  1.00800000E+00  0.00000000E+00  1.60000000E+01
  1.00800000E+00  1.00800000E+00  0.00000000E+00  1.60000000E+01  1.00800000E+00
  1.00800000E+00  0.00000000E+00  1.60000000E+01  1.00800000E+00  1.00800000E+00
  0.00000000E+00  1.60000000E+01  1.00800000E+00  1.00800000E+00  0.00000000E+00
  1.60000000E+01  1.00800000E+00  1.00800000E+00  0.00000000E+00  1.60000000E+01
  1.00800000E+00  1.00800000E+00  0.00000000E+00  1.60000000E+01  1.00800000E+00
  1.00800000E+00  0.00000000E+00  1.60000000E+01  1.00800000E+00  1.00800000E+00
  0.00000000E+00  1.60000000E+01  1.00800000E+00  1.00800000E+00  0.00000000E+00
  1.60000000E+01  1.00800000E+00  1.00800000E+00  0.00000000E+00  1.60000000E+01
  1.00800000E+00  1.00800000E+00  0.00000000E+00  1.60000000E+01  1.00800000E+00
  1.00800000E+00  0.00000000E+00  1.60000000E+01  1.00800000E+00  1.00800000E+00
  0.00000000E+00  1.60000000E+01  1.00800000E+00  1.00800000E+00  0.00000000E+00
  1.60000000E+01  1.00800000E+00  1.00800000E+00  0.00000000E+00  1.60000000E+01
  1.00800000E+00  1.00800000E+00  0.00000000E+00  1.60000000E+01  1.00800000E+00
  1.00800000E+00  0.00000000E+00  1.60000000E+01  1.00800000E+00  1.00800000E+00
  0.00000000E+00  1.60000000E+01  1.00800000E+00  1.00800000E+00  0.00000000E+00
  1.60000000E+01  1.00800000E+00  1.00800000E+00  0.00000000E+00  1.60000000E+01
  1.00800000E+00  1.00800000E+00  0.00000000E+00  1.60000000E+01  1.00800000E+00
  1.00800000E+00  0.00000000E+00  1.60000000E+01  1.00800000E+00  1.00800000E+00
  0.00000000E+00  1.60000000E+01  1.00800000E+00  1.00800000E+00  0.00000000E+00
  1.60000000E+01  1.00800000E+00  1.00800000E+00  0.00000000E+00  1.60000000E+01
  1.00800000E+00  1.00800000E+00  0.00000000E+00  1.60000000E+01  1.00800000E+00
  1.00800000E+00  0.00000000E+00  1.60000000E+01  1.00800000E+00  1.00800000E+00
  0.00000000E+00  1.60000000E+01  1.00800000E+00  1.00800000E+00  0.00000000E+00
  1.60000000E+01  1.00800000E+00  1.00800000E+00  0.00000000E+00  1.60000000E+01
  1.00800000E+00  1.00800000E+00  0.00000000E+00  1.60000000E+01  1.00800000E+00
  1.00800000E+00  0.00000000E+00  1.60000000E+01  1.00800000E+00  1.00800000E+00
  0.00000000E+00  1.60000000E+01  1.00800000E+00  1.00800000E+00  0.00000000E+00
  1.60000000E+01  1.00800000E+00  1.00800000E+00  0.00000000E+00  1.60000000E+01
  1.00800000E+00  1.00800000E+00  0.00000000E+00  1.60000000E+01  1.00800000E+00
  1.00800000E+00  0.00000000E+00  1.60000000E+01  1.00800000E+00  1.00800000E+00
  0.00000000E+00  1.60000000E+01  1.00800000E+00  1.00800000E+00  0.00000000E+00
  1.60000000E+01  1.00800000E+00  1.00800000E+00  0.00000000E+00  1.60000000E+01
  1.00800000E+00  1.00800000E+00  0.00000000E+00  1.60000000E+01  1.00800000E+00
  1.00800000E+00  0.00000000E+00  1.60000000E+01  1.00800000E+00  1.00800000E+00
  0.00000000E+00  1.60000000E+01  1.00800000E+00  1.00800000E+00  0.00000000E+00
  1.60000000E+01  1.00800000E+00  1.00800000E+00  0.00000000E+00  1.60000000E+01
  1.00800000E+00  1.00800000E+00  0.00000000E+00  1.60000000E+01  1.00800000E+00
  1.00800000E+00  0.00000000E+00  1.60000000E+01  1.00800000E+00  1.00800000E+00
  0.00000000E+00  1.60000000E+01  1.00800000E+00  1.00800000E+00  0.00000000E+00
  1.60000000E+01  1.00800000E+00  1.00800000E+00  0.00000000E+00  1.60000000E+01
  1.00800000E+00  1.00800000E+00  0.00000000E+00  1.60000000E+01  1.00800000E+00
  1.00800000E+00  0.00000000E+00  1.60000000E+01  1.00800000E+00  1.00800000E+00
  0.00000000E+00  1.60000000E+01  1.00800000E+00  1.00800000E+00  0.00000000E+00
  1.60000000E+01  1.00800000E+00  1.00800000E+00  0.00000000E+00  1.60000000E+01
  1.00800000E+00  1.00800000E+00  0.00000000E+00  1.60000000E+01  1.00800000E+00
  1.00800000E+00  0.00000000E+00  1.60000000E+01  1.00800000E+00  1.00800000E+00
  0.00000000E+00  1.60000000E+01  1.00800000E+00  1.00800000E+00  0.00000000E+00
  1.60000000E+01  1.00800000E+00  1.00800000E+00  0.00000000E+00  1.60000000E+01
  1.00800000E+00  1.00800000E+00  0.00000000E+00  1.60000000E+01  1.00800000E+00
  1.00800000E+00  0.00000000E+00  1.60000000E+01  1.00800000E+00  1.00800000E+00
  0.00000000E+00  1.60000000E+01  1.00800000E+00  1.00800000E+00  0.00000000E+00
  1.60000000E+01  1.00800000E+00  1.00800000E+00  0.00000000E+00  1.60000000E+01
  1.00800000E+00  1.00800000E+00  0.00000000E+00  1.60000000E+01  1.00800000E+00
  1.00800000E+00  0.00000000E+00  1.60000000E+01  1.00800000E+00  1.00800000E+00
  0.00000000E+00  1.60000000E+01  1.00800000E+00  1.00800000E+00  0.00000000E+00
  1.60000000E+01  1.00800000E+00  1.00800000E+00  0.00000000E+00  1.60000000E+01
  1.00800000E+00  1.00800000E+00  0.00000000E+00  1.60000000E+01  1.00800000E+00
  1.00800000E+00  0.00000000E+00  1.60000000E+01  1.00800000E+00  1.00800000E+00
  0.00000000E+00  1.60000000E+01  1.00800000E+00  1.00800000E+00  0.00000000E+00
  1.60000000E+01  1.00800000E+00  1.00800000E+00  0.00000000E+00  1.60000000E+01
  1.00800000E+00  1.00800000E+00  0.00000000E+00  1.60000000E+01  1.00800000E+00
  1.00800000E+00  0.00000000E+00  1.60000000E+01  1.00800000E+00  1.00800000E+00
  0.00000000E+00  1.60000000E+01  1.00800000E+00  1.00800000E+00  0.00000000E+00
  1.60000000E+01  1.00800000E+00  1.00800000E+00  0.00000000E+00  1.60000000E+01
  1.00800000E+00  1.00800000E+00  0.00000000E+00  1.60000000E+01  1.00800000E+00
  1.00800000E+00  0.00000000E+00  1.60000000E+01  1.00800000E+00  1.00800000E+00
  0.00000000E+00  1.60000000E+01  1.00800000E+00  1.00800000E+00  0.00000000E+00
  1.60000000E+01  1.00800000E+00  1.00800000E+00  0.00000000E+00  1.60000000E+01
  1.00800000E+00  1.00800000E+00  0.00000000E+00  1.60000000E+01  1.00800000E+00
  1.00800000E+00  0.00000000E+00  1.60000000E+01  1.00800000E+00  1.00800000E+00
  0.00000000E+00  1.60000000E+01  1.00800000E+00  1.00800000E+00  0.00000000E+00
  1.60000000E+01  1.00800000E+00  1.00800000E+00  0.00000000E+00  1.60000000E+01
  1.00800000E+00  1.00800000E+00  0.00000000E+00  1.60000000E+01  1.00800000E+00
  1.00800000E+00  0.00000000E+00  1.60000000E+01  1.00800000E+00  1.00800000E+00
  0.00000000E+00  1.60000000E+01  1.00800000E+00  1.00800000E+00  0.00000000E+00
  1.60000000E+01  1.00800000E+00  1.00800000E+00  0.00000000E+00  1.60000000E+01
  1.00800000E+00  1.00800000E+00  0.00000000E+00  1.60000000E+01  1.00800000E+00
  1.00800000E+00  0.00000000E+00  1.60000000E+01  1.00800000E+00  1.00800000E+00
  0.00000000E+00  1.60000000E+01  1.00800000E+00  1.00800000E+00  0.00000000E+00
  1.60000000E+01  1.00800000E+00  1.00800000E+00  0.00000000E+00  1.60000000E+01
  1.00800000E+00  1.00800000E+00  0.00000000E+00  1.60000000E+01  1.00800000E+00
  1.00800000E+00  0.00000000E+00  1.60000000E+01  1.00800000E+00  1.00800000E+00
  0.00000000E+00  1.60000000E+01  1.00800000E+00  1.00800000E+00  0.00000000E+00
  1.60000000E+01  1.00800000E+00  1.00800000E+00  0.00000000E+00  1.60000000E+01
  1.00800000E+00  1.00800000E+00  0.00000000E+00  1.60000000E+01  1.00800000E+00
  1.00800000E+00  0.00000000E+00  1.60000000E+01  1.00800000E+00  1.00800000E+00
  0.00000000E+00  1.60000000E+01  1.00800000E+00  1.00800000E+00  0.00000000E+00
  1.60000000E+01  1.00800000E+00  1.00800000E+00  0.00000000E+00  1.60000000E+01
  1.00800000E+00  1.00800000E+00  0.00000000E+00  1.60000000E+01  1.00800000E+00
  1.00800000E+00  0.00000000E+00  1.60000000E+01  1.00800000E+00  1.00800000E+00
  0.00000000E+00  1.60000000E+01  1.00800000E+00  1.00800000E+00  0.00000000E+00
  1.60000000E+01  1.00800000E+00  1.00800000E+00  0.00000000E+00  1.60000000E+01
  1.00800000E+00  1.00800000E+00  0.00000000E+00  1.60000000E+01  1.00800000E+00
  1.00800000E+00  0.00000000E+00  1.60000000E+01  1.00800000E+00  1.00800000E+00
  0.00000000E+00  1.60000000E+01  1.00800000E+00  1.00800000E+00  0.00000000E+00
  1.60000000E+01  1.00800000E+00  1.00800000E+00  0.00000000E+00  1.60000000E+01
  1.00800000E+00  1.00800000E+00  0.00000000E+00  1.60000000E+01  1.00800000E+00
  1.00800000E+00  0.00000000E+00  1.60000000E+01  1.00800000E+00  1.00800000E+00
  0.00000000E+00  1.60000000E+01  1.00800000E+00  1.00800000E+00  0.00000000E+00
  1.60000000E+01  1.00800000E+00  1.00800000E+00  0.00000000E+00  1.60000000E+01
  1.00800000E+00  1.00800000E+00  0.00000000E+00  1.60000000E+01  1.00800000E+00
  1.00800000E+00  0.00000000E+00  1.60000000E+01  1.00800000E+00  1.00800000E+00
  0.00000000E+00  1.60000000E+01  1.00800000E+00  1.00800000E+00  0.00000000E+00
  1.60000000E+01  1.00800000E+00  1.00800000E+00  0.00000000E+00  1.60000000E+01
  1.00800000E+00  1.00800000E+00  0.00000000E+00  1.60000000E+01  1.00800000E+00
  1.00800000E+00  0.00000000E+00  1.60000000E+01  1.00800000E+00  1.00800000E+00
  0.00000000E+00  1.60000000E+01  1.00800000E+00  1.00800000E+00  0.00000000E+00
  1.60000000E+01  1.00800000E+00  1.00800000E+00  0.00000000E+00  1.60000000E+01
  1.00800000E+00  1.00800000E+00  0.00000000E+00  1.60000000E+01  1.00800000E+00
  1.00800000E+00  0.00000000E+00  1.60000000E+01  1.00800000E+00  1.00800000E+00
  0.00000000E+00  1.60000000E+01  1.00800000E+00  1.00800000E+00  0.00000000E+00
  1.60000000E+01  1.00800000E+00  1.00800000E+00  0.00000000E+00  1.60000000E+01
  1.00800000E+00  1.00800000E+00  0.00000000E+00  1.60000000E+01  1.00800000E+00
  1.00800000E+00  0.00000000E+00  1.60000000E+01  1.00800000E+00  1.00800000E+00
  0.00000000E+00  1.60000000E+01  1.00800000E+00  1.00800000E+00  0.00000000E+00
  1.60000000E+01  1.00800000E+00  1.00800000E+00  0.00000000E+00  1.60000000E+01
  1.00800000E+00  1.00800000E+00  0.00000000E+00  1.60000000E+01  1.00800000E+00
  1.00800000E+00  0.00000000E+00  1.60000000E+01  1.00800000E+00  1.00800000E+00
  0.00000000E+00  1.60000000E+01  1.00800000E+00  1.00800000E+00  0.00000000E+00
  1.60000000E+01  1.00800000E+00  1.00800000E+00  0.00000000E+00  1.60000000E+01
  1.00800000E+00  1.00800000E+00  0.00000000E+00  1.60000000E+01  1.00800000E+00
  1.00800000E+00  0.00000000E+00  1.60000000E+01  1.00800000E+00  1.00800000E+00
  0.00000000E+00  1.60000000E+01  1.00800000E+00  1.00800000E+00  0.00000000E+00
  1.60000000E+01  1.00800000E+00  1.00800000E+00  0.00000000E+00  1.60000000E+01
  1.00800000E+00  1.00800000E+00  0.00000000E+00  1.60000000E+01  1.00800000E+00
  1.00800000E+00  0.00000000E+00  1.60000000E+01  1.00800000E+00  1.00800000E+00
  0.00000000E+00  1.60000000E+01  1.00800000E+00  1.00800000E+00  0.00000000E+00
  1.60000000E+01  1.00800000E+00  1.00800000E+00  0.00000000E+00  1.60000000E+01
  1.00800000E+00  1.00800000E+00  0.00000000E+00  1.60000000E+01  1.00800000E+00
  1.00800000E+00  0.00000000E+00  1.60000000E+01  1.00800000E+00  1.00800000E+00
  0.00000000E+00  1.60000000E+01  1.00800000E+00  1.00800000E+00  0.00000000E+00
  1.60000000E+01  1.00800000E+00  1.00800000E+00  0.00000000E+00  1.60000000E+01
  1.00800000E+00  1.00800000E+00  0.00000000E+00  1.60000000E+01  1.00800000E+00
  1.00800000E+00  0.00000000E+00  1.60000000E+01  1.00800000E+00  1.00800000E+00
  0.00000000E+00  1.60000000E+01  1.00800000E+00  1.00800000E+00  0.00000000E+00
  1.60000000E+01  1.00800000E+00  1.00800000E+00  0.00000000E+00  1.60000000E+01
  1.00800000E+00  1.00800000E+00  0.00000000E+00  1.60000000E+01  1.00800000E+00
  1.00800000E+00  0.00000000E+00  1.60000000E+01  1.00800000E+00  1.00800000E+00
  0.00000000E+00  1.60000000E+01  1.00800000E+00  1.00800000E+00  0.00000000E+00
  1.60000000E+01  1.00800000E+00  1.00800000E+00  0.00000000E+00  1.60000000E+01
  1.00800000E+00  1.00800000E+00  0.00000000E+00  1.60000000E+01  1.00800000E+00
  1.00800000E+00  0.00000000E+00  1.60000000E+01  1.00800000E+00  1.00800000E+00
  0.00000000E+00  1.60000000E+01  1.00800000E+00  1.00800000E+00  0.00000000E+00
  1.60000000E+01  1.00800000E+00  1.00800000E+00  0.00000000E+00  1.60000000E+01
  1.00800000E+00  1.00800000E+00  0.00000000E+00  1.60000000E+01  1.00800000E+00
  1.00800000E+00  0.00000000E+00  1.60000000E+01  1.00800000E+00  1.00800000E+00
  0.00000000E+00  1.60000000E+01  1.00800000E+00  1.00800000E+00  0.00000000E+00
  1.60000000E+01  1.00800000E+00  1.00800000E+00  0.00000000E+00  1.60000000E+01
  1.00800000E+00  1.00800000E+00  0.00000000E+00  1.60000000E+01  1.00800000E+00
  1.00800000E+00  0.00000000E+00  1.60000000E+01  1.00800000E+00  1.00800000E+00
  0.00000000E+00  1.60000000E+01  1.00800000E+00  1.00800000E+00  0.00000000E+00
  1.60000000E+01  1.00800000E+00  1.00800000E+00  0.00000000E+00  1.60000000E+01
  1.00800000E+00  1.00800000E+00  0.00000000E+00  1.60000000E+01  1.00800000E+00
  1.00800000E+00  0.00000000E+00  1.60000000E+01  1.00800000E+00  1.00800000E+00
  0.00000000E+00  1.60000000E+01  1.00800000E+00  1.00800000E+00  0.00000000E+00
  1.60000000E+01  1.00800000E+00  1.00800000E+00  0.00000000E+00  1.60000000E+01
  1.00800000E+00  1.00800000E+00  0.00000000E+00  1.60000000E+01  1.00800000E+00
  1.00800000E+00  0.00000000E+00  1.60000000E+01  1.00800000E+00  1.00800000E+00
  0.00000000E+00  1.60000000E+01  1.00800000E+00  1.00800000E+00  0.00000000E+00
  1.60000000E+01  1.00800000E+00  1.00800000E+00  0.00000000E+00  1.60000000E+01
  1.00800000E+00  1.00800000E+00  0.00000000E+00  1.60000000E+01  1.00800000E+00
  1.00800000E+00  0.00000000E+00  1.60000000E+01  1.00800000E+00  1.00800000E+00
  0.00000000E+00  1.60000000E+01  1.00800000E+00  1.00800000E+00  0.00000000E+00
  1.60000000E+01  1.00800000E+00  1.00800000E+00  0.00000000E+00  1.60000000E+01
  1.00800000E+00  1.00800000E+00  0.00000000E+00  1.60000000E+01  1.00800000E+00
  1.00800000E+00  0.00000000E+00  1.60000000E+01  1.00800000E+00  1.00800000E+00
  0.00000000E+00  1.60000000E+01  1.00800000E+00  1.00800000E+00  0.00000000E+00
  1.60000000E+01  1.00800000E+00  1.00800000E+00  0.00000000E+00  1.60000000E+01
  1.00800000E+00  1.00800000E+00  0.00000000E+00  1.60000000E+01  1.00800000E+00
  1.00800000E+00  0.00000000E+00  1.60000000E+01  1.00800000E+00  1.00800000E+00
  0.00000000E+00  1.60000000E+01  1.00800000E+00  1.00800000E+00  0.00000000E+00
  1.60000000E+01  1.00800000E+00  1.00800000E+00  0.00000000E+00  1.60000000E+01
  1.00800000E+00  1.00800000E+00  0.00000000E+00  1.60000000E+01  1.00800000E+00
  1.00800000E+00  0.00000000E+00  1.60000000E+01  1.00800000E+00  1.00800000E+00
  0.00000000E+00  1.60000000E+01  1.00800000E+00  1.00800000E+00  0.00000000E+00
  1.60000000E+01  1.00800000E+00  1.00800000E+00  0.00000000E+00  1.60000000E+01
  1.00800000E+00  1.00800000E+00  0.00000000E+00  1.60000000E+01  1.00800000E+00
  1.00800000E+00  0.00000000E+00  1.60000000E+01  1.00800000E+00  1.00800000E+00
  0.00000000E+00  1.60000000E+01  1.00800000E+00  1.00800000E+00  0.00000000E+00
  1.60000000E+01  1.00800000E+00  1.00800000E+00  0.00000000E+00  1.60000000E+01
  1.00800000E+00  1.00800000E+00  0.00000000E+00  1.60000000E+01  1.00800000E+00
  1.00800000E+00  0.00000000E+00  1.60000000E+01  1.00800000E+00  1.00800000E+00
  0.00000000E+00  1.60000000E+01  1.00800000E+00  1.00800000E+00  0.00000000E+00
  1.60000000E+01  1.00800000E+00  1.00800000E+00  0.00000000E+00  1.60000000E+01
  1.00800000E+00  1.00800000E+00  0.00000000E+00  1.60000000E+01  1.00800000E+00
  1.00800000E+00  0.00000000E+00  1.60000000E+01  1.00800000E+00  1.00800000E+00
  0.00000000E+00  1.60000000E+01  1.00800000E+00  1.00800000E+00  0.00000000E+00
  1.60000000E+01  1.00800000E+00  1.00800000E+00  0.00000000E+00  1.60000000E+01
  1.00800000E+00  1.00800000E+00  0.00000000E+00  1.60000000E+01  1.00800000E+00
  1.00800000E+00  0.00000000E+00  1.60000000E+01  1.00800000E+00  1.00800000E+00
  0.00000000E+00  1.60000000E+01  1.00800000E+00  1.00800000E+00  0.00000000E+00
  1.60000000E+01  1.00800000E+00  1.00800000E+00  0.00000000E+00  1.60000000E+01
  1.00800000E+00  1.00800000E+00  0.00000000E+00  1.60000000E+01  1.00800000E+00
  1.00800000E+00  0.00000000E+00  1.60000000E+01  1.00800000E+00  1.00800000E+00
  0.00000000E+00  1.60000000E+01  1.00800000E+00  1.00800000E+00  0.00000000E+00
  1.60000000E+01  1.00800000E+00  1.00800000E+00  0.00000000E+00  1.60000000E+01
  1.00800000E+00  1.00800000E+00  0.00000000E+00  1.60000000E+01  1.00800000E+00
  1.00800000E+00  0.00000000E+00  1.60000000E+01  1.00800000E+00  1.00800000E+00
  0.00000000E+00  1.60000000E+01  1.00800000E+00  1.00800000E+00  0.00000000E+00
  1.60000000E+01  1.00800000E+00  1.00800000E+00  0.00000000E+00  1.60000000E+01
  1.00800000E+00  1.00800000E+00  0.00000000E+00  1.60000000E+01  1.00800000E+00
  1.00800000E+00  0.00000000E+00  1.60000000E+01  1.00800000E+00  1.00800000E+00
  0.00000000E+00  1.60000000E+01  1.00800000E+00  1.00800000E+00  0.00000000E+00
  1.60000000E+01  1.00800000E+00  1.00800000E+00  0.00000000E+00  1.60000000E+01
  1.00800000E+00  1.00800000E+00  0.00000000E+00  1.60000000E+01  1.00800000E+00
  1.00800000E+00  0.00000000E+00  1.60000000E+01  1.00800000E+00  1.00800000E+00
  0.00000000E+00  1.60000000E+01  1.00800000E+00  1.00800000E+00  0.00000000E+00
  1.60000000E+01  1.00800000E+00  1.00800000E+00  0.00000000E+00  1.60000000E+01
  1.00800000E+00  1.00800000E+00  0.00000000E+00  1.60000000E+01  1.00800000E+00
  1.00800000E+00  0.00000000E+00  1.60000000E+01  1.00800000E+00  1.00800000E+00
  0.00000000E+00  1.60000000E+01  1.00800000E+00  1.00800000E+00  0.00000000E+00
  1.60000000E+01  1.00800000E+00  1.00800000E+00  0.00000000E+00  1.60000000E+01
  1.00800000E+00  1.00800000E+00  0.00000000E+00  1.60000000E+01  1.00800000E+00
  1.00800000E+00  0.00000000E+00  1.60000000E+01  1.00800000E+00  1.00800000E+00
  0.00000000E+00  1.60000000E+01  1.00800000E+00  1.00800000E+00  0.00000000E+00
  1.60000000E+01  1.00800000E+00  1.00800000E+00  0.00000000E+00  1.60000000E+01
  1.00800000E+00  1.00800000E+00  0.00000000E+00  1.60000000E+01  1.00800000E+00
  1.00800000E+00  0.00000000E+00  1.60000000E+01  1.00800000E+00  1.00800000E+00
  0.00000000E+00  1.60000000E+01  1.00800000E+00  1.00800000E+00  0.00000000E+00
  1.60000000E+01  1.00800000E+00  1.00800000E+00  0.00000000E+00  1.60000000E+01
  1.00800000E+00  1.00800000E+00  0.00000000E+00  1.60000000E+01  1.00800000E+00
  1.00800000E+00  0.00000000E+00  1.60000000E+01  1.00800000E+00  1.00800000E+00
  0.00000000E+00  1.60000000E+01  1.00800000E+00  1.00800000E+00  0.00000000E+00
  1.60000000E+01  1.00800000E+00  1.00800000E+00  0.00000000E+00  1.60000000E+01
  1.00800000E+00  1.00800000E+00  0.00000000E+00  1.60000000E+01  1.00800000E+00
  1.00800000E+00  0.00000000E+00  1.60000000E+01  1.00800000E+00  1.00800000E+00
  0.00000000E+00  1.60000000E+01  1.00800000E+00  1.00800000E+00  0.00000000E+00
  1.60000000E+01  1.00800000E+00  1.00800000E+00  0.00000000E+00  1.60000000E+01
  1.00800000E+00  1.00800000E+00  0.00000000E+00  1.60000000E+01  1.00800000E+00
  1.00800000E+00  0.00000000E+00  1.60000000E+01  1.00800000E+00  1.00800000E+00
  0.00000000E+00  1.60000000E+01  1.00800000E+00  1.00800000E+00  0.00000000E+00
  1.60000000E+01  1.00800000E+00  1.00800000E+00  0.00000000E+00  1.60000000E+01
  1.00800000E+00  1.00800000E+00  0.00000000E+00  1.60000000E+01  1.00800000E+00
  1.00800000E+00  0.00000000E+00  1.60000000E+01  1.00800000E+00  1.00800000E+00
  0.00000000E+00  1.60000000E+01  1.00800000E+00  1.00800000E+00  0.00000000E+00
  1.60000000E+01  1.00800000E+00  1.00800000E+00  0.00000000E+00  1.60000000E+01
  1.00800000E+00  1.00800000E+00  0.00000000E+00  1.60000000E+01  1.00800000E+00
  1.00800000E+00  0.00000000E+00  1.60000000E+01  1.00800000E+00  1.00800000E+00
  0.00000000E+00  1.60000000E+01  1.00800000E+00  1.00800000E+00  0.00000000E+00
  1.60000000E+01  1.00800000E+00  1.00800000E+00  0.00000000E+00  1.60000000E+01
  1.00800000E+00  1.00800000E+00  0.00000000E+00  1.60000000E+01  1.00800000E+00
  1.00800000E+00  0.00000000E+00  1.60000000E+01  1.00800000E+00  1.00800000E+00
  0.00000000E+00  1.60000000E+01  1.00800000E+00  1.00800000E+00  0.00000000E+00
  1.60000000E+01  1.00800000E+00  1.00800000E+00  0.00000000E+00  1.60000000E+01
  1.00800000E+00  1.00800000E+00  0.00000000E+00  1.60000000E+01  1.00800000E+00
  1.00800000E+00  0.00000000E+00  1.60000000E+01  1.00800000E+00  1.00800000E+00
  0.00000000E+00  1.60000000E+01  1.00800000E+00  1.00800000E+00  0.00000000E+00
  1.60000000E+01  1.00800000E+00  1.00800000E+00  0.00000000E+00  1.60000000E+01
  1.00800000E+00  1.00800000E+00  0.00000000E+00  1.60000000E+01  1.00800000E+00
  1.00800000E+00  0.00000000E+00  1.60000000E+01  1.00800000E+00  1.00800000E+00
  0.00000000E+00  1.60000000E+01  1.00800000E+00  1.00800000E+00  0.00000000E+00
  1.60000000E+01  1.00800000E+00  1.00800000E+00  0.00000000E+00  1.60000000E+01
  1.00800000E+00  1.00800000E+00  0.00000000E+00  1.60000000E+01  1.00800000E+00
  1.00800000E+00  0.00000000E+00  1.60000000E+01  1.00800000E+00  1.00800000E+00
  0.00000000E+00  1.60000000E+01  1.00800000E+00  1.00800000E+00  0.00000000E+00
  1.60000000E+01  1.00800000E+00  1.00800000E+00  0.00000000E+00  1.60000000E+01
  1.00800000E+00  1.00800000E+00  0.00000000E+00  1.60000000E+01  1.00800000E+00
  1.00800000E+00  0.00000000E+00  1.60000000E+01  1.00800000E+00  1.00800000E+00
  0.00000000E+00  1.60000000E+01  1.00800000E+00  1.00800000E+00  0.00000000E+00
  1.60000000E+01  1.00800000E+00  1.00800000E+00  0.00000000E+00  1.60000000E+01
  1.00800000E+00  1.00800000E+00  0.00000000E+00  1.60000000E+01  1.00800000E+00
  1.00800000E+00  0.00000000E+00  1.60000000E+01  1.00800000E+00  1.00800000E+00
  0.00000000E+00  1.60000000E+01  1.00800000E+00  1.00800000E+00  0.00000000E+00
  1.60000000E+01  1.00800000E+00  1.00800000E+00  0.00000000E+00  1.60000000E+01
  1.00800000E+00  1.00800000E+00  0.00000000E+00  1.60000000E+01  1.00800000E+00
  1.00800000E+00  0.00000000E+00  1.60000000E+01  1.00800000E+00  1.00800000E+00
  0.00000000E+00  1.60000000E+01  1.00800000E+00  1.00800000E+00  0.00000000E+00
  1.60000000E+01  1.00800000E+00  1.00800000E+00  0.00000000E+00  1.60000000E+01
  1.00800000E+00  1.00800000E+00  0.00000000E+00  1.60000000E+01  1.00800000E+00
  1.00800000E+00  0.00000000E+00  1.60000000E+01  1.00800000E+00  1.00800000E+00
  0.00000000E+00  1.60000000E+01  1.00800000E+00  1.00800000E+00  0.00000000E+00
  1.60000000E+01  1.00800000E+00  1.00800000E+00  0.00000000E+00  1.60000000E+01
  1.00800000E+00  1.00800000E+00  0.00000000E+00  1.60000000E+01  1.00800000E+00
  1.00800000E+00  0.00000000E+00  1.60000000E+01  1.00800000E+00  1.00800000E+00
  0.00000000E+00  1.60000000E+01  1.00800000E+00  1.00800000E+00  0.00000000E+00
  1.60000000E+01  1.00800000E+00  1.00800000E+00  0.00000000E+00  1.60000000E+01
  1.00800000E+00  1.00800000E+00  0.00000000E+00  1.60000000E+01  1.00800000E+00
  1.00800000E+00  0.00000000E+00  1.60000000E+01  1.00800000E+00  1.00800000E+00
  0.00000000E+00  1.60000000E+01  1.00800000E+00  1.00800000E+00  0.00000000E+00
  1.60000000E+01  1.00800000E+00  1.00800000E+00  0.00000000E+00  1.60000000E+01
  1.00800000E+00  1.00800000E+00  0.00000000E+00  1.60000000E+01  1.00800000E+00
  1.00800000E+00  0.00000000E+00  1.60000000E+01  1.00800000E+00  1.00800000E+00
  0.00000000E+00  1.60000000E+01  1.00800000E+00  1.00800000E+00  0.00000000E+00
  1.60000000E+01  1.00800000E+00  1.00800000E+00  0.00000000E+00  1.60000000E+01
  1.00800000E+00  1.00800000E+00  0.00000000E+00  1.60000000E+01  1.00800000E+00
  1.00800000E+00  0.00000000E+00  1.60000000E+01  1.00800000E+00  1.00800000E+00
  0.00000000E+00  1.60000000E+01  1.00800000E+00  1.00800000E+00  0.00000000E+00
  1.60000000E+01  1.00800000E+00  1.00800000E+00  0.00000000E+00  1.60000000E+01
  1.00800000E+00  1.00800000E+00  0.00000000E+00  1.60000000E+01  1.00800000E+00
  1.00800000E+00  0.00000000E+00  1.60000000E+01  1.00800000E+00  1.00800000E+00
  0.00000000E+00  1.60000000E+01  1.00800000E+00  1.00800000E+00  0.00000000E+00
  1.60000000E+01  1.00800000E+00  1.00800000E+00  0.00000000E+00  1.60000000E+01
  1.00800000E+00  1.00800000E+00  0.00000000E+00  1.60000000E+01  1.00800000E+00
  1.00800000E+00  0.00000000E+00  1.60000000E+01  1.00800000E+00  1.00800000E+00
  0.00000000E+00  1.60000000E+01  1.00800000E+00  1.00800000E+00  0.00000000E+00
  1.60000000E+01  1.00800000E+00  1.00800000E+00  0.00000000E+00  1.60000000E+01
  1.00800000E+00  1.00800000E+00  0.00000000E+00  1.60000000E+01  1.00800000E+00
  1.00800000E+00  0.00000000E+00  1.60000000E+01  1.00800000E+00  1.00800000E+00
  0.00000000E+00  1.60000000E+01  1.00800000E+00  1.00800000E+00  0.00000000E+00
  1.60000000E+01  1.00800000E+00  1.00800000E+00  0.00000000E+00  1.60000000E+01
  1.00800000E+00  1.00800000E+00  0.00000000E+00  1.60000000E+01  1.00800000E+00
  1.00800000E+00  0.00000000E+00  1.60000000E+01  1.00800000E+00  1.00800000E+00
  0.00000000E+00  1.60000000E+01  1.00800000E+00  1.00800000E+00  0.00000000E+00
  1.60000000E+01  1.00800000E+00  1.00800000E+00  0.00000000E+00  1.60000000E+01
  1.00800000E+00  1.00800000E+00  0.00000000E+00  1.60000000E+01  1.00800000E+00
  1.00800000E+00  0.00000000E+00  1.60000000E+01  1.00800000E+00  1.00800000E+00
  0.00000000E+00  1.60000000E+01  1.00800000E+00  1.00800000E+00  0.00000000E+00
  1.60000000E+01  1.00800000E+00  1.00800000E+00  0.00000000E+00  1.60000000E+01
  1.00800000E+00  1.00800000E+00  0.00000000E+00  1.60000000E+01  1.00800000E+00
  1.00800000E+00  0.00000000E+00  1.60000000E+01  1.00800000E+00  1.00800000E+00
  0.00000000E+00  1.60000000E+01  1.00800000E+00  1.00800000E+00  0.00000000E+00
  1.60000000E+01  1.00800000E+00  1.00800000E+00  0.00000000E+00  1.60000000E+01
  1.00800000E+00  1.00800000E+00  0.00000000E+00  1.60000000E+01  1.00800000E+00
  1.00800000E+00  0.00000000E+00  1.60000000E+01  1.00800000E+00  1.00800000E+00
  0.00000000E+00  1.60000000E+01  1.00800000E+00  1.00800000E+00  0.00000000E+00
  1.60000000E+01  1.00800000E+00  1.00800000E+00  0.00000000E+00  1.60000000E+01
  1.00800000E+00  1.00800000E+00  0.00000000E+00  1.60000000E+01  1.00800000E+00
  1.00800000E+00  0.00000000E+00  1.60000000E+01  1.00800000E+00  1.00800000E+00
  0.00000000E+00  1.60000000E+01  1.00800000E+00  1.00800000E+00  0.00000000E+00
  1.60000000E+01  1.00800000E+00  1.00800000E+00  0.00000000E+00  1.60000000E+01
  1.00800000E+00  1.00800000E+00  0.00000000E+00  1.60000000E+01  1.00800000E+00
  1.00800000E+00  0.00000000E+00  1.60000000E+01  1.00800000E+00  1.00800000E+00
  0.00000000E+00  1.60000000E+01  1.00800000E+00  1.00800000E+00  0.00000000E+00
  1.60000000E+01  1.00800000E+00  1.00800000E+00  0.00000000E+00  1.60000000E+01
  1.00800000E+00  1.00800000E+00  0.00000000E+00  1.60000000E+01  1.00800000E+00
  1.00800000E+00  0.00000000E+00  1.60000000E+01  1.00800000E+00  1.00800000E+00
  0.00000000E+00  1.60000000E+01  1.00800000E+00  1.00800000E+00  0.00000000E+00
  1.60000000E+01  1.00800000E+00  1.00800000E+00  0.00000000E+00  1.60000000E+01
  1.00800000E+00  1.00800000E+00  0.00000000E+00  1.60000000E+01  1.00800000E+00
  1.00800000E+00  0.00000000E+00  1.60000000E+01  1.00800000E+00  1.00800000E+00
  0.00000000E+00  1.60000000E+01  1.00800000E+00  1.00800000E+00  0.00000000E+00
  1.60000000E+01  1.00800000E+00  1.00800000E+00  0.00000000E+00  1.60000000E+01
  1.00800000E+00  1.00800000E+00  0.00000000E+00  1.60000000E+01  1.00800000E+00
  1.00800000E+00  0.00000000E+00  1.60000000E+01  1.00800000E+00  1.00800000E+00
  0.00000000E+00  1.60000000E+01  1.00800000E+00  1.00800000E+00  0.00000000E+00
  1.60000000E+01  1.00800000E+00  1.00800000E+00  0.00000000E+00  1.60000000E+01
  1.00800000E+00  1.00800000E+00  0.00000000E+00  1.60000000E+01  1.00800000E+00
  1.00800000E+00  0.00000000E+00  1.60000000E+01  1.00800000E+00  1.00800000E+00
  0.00000000E+00  1.60000000E+01  1.00800000E+00  1.00800000E+00  0.00000000E+00
  1.60000000E+01  1.00800000E+00  1.00800000E+00  0.00000000E+00  1.60000000E+01
  1.00800000E+00  1.00800000E+00  0.00000000E+00  1.60000000E+01  1.00800000E+00
  1.00800000E+00  0.00000000E+00  1.60000000E+01  1.00800000E+00  1.00800000E+00
  0.00000000E+00  1.60000000E+01  1.00800000E+00  1.00800000E+00  0.00000000E+00
  1.60000000E+01  1.00800000E+00  1.00800000E+00  0.00000000E+00  1.60000000E+01
  1.00800000E+00  1.00800000E+00  0.00000000E+00  1.60000000E+01  1.00800000E+00
  1.00800000E+00  0.00000000E+00  1.60000000E+01  1.00800000E+00  1.00800000E+00
  0.00000000E+00  1.60000000E+01  1.00800000E+00  1.00800000E+00  0.00000000E+00
  1.60000000E+01  1.00800000E+00  1.00800000E+00  0.00000000E+00  1.60000000E+01
  1.00800000E+00  1.00800000E+00  0.00000000E+00  1.60000000E+01  1.00800000E+00
  1.00800000E+00  0.00000000E+00  1.60000000E+01  1.00800000E+00  1.00800000E+00
  0.00000000E+00  1.60000000E+01  1.00800000E+00  1.00800000E+00  0.00000000E+00
  1.60000000E+01  1.00800000E+00  1.00800000E+00  0.00000000E+00  1.60000000E+01
  1.00800000E+00  1.00800000E+00  0.00000000E+00  1.60000000E+01  1.00800000E+00
  1.00800000E+00  0.00000000E+00  1.60000000E+01  1.00800000E+00  1.00800000E+00
  0.00000000E+00  1.60000000E+01  1.00800000E+00  1.00800000E+00  0.00000000E+00
  1.60000000E+01  1.00800000E+00  1.00800000E+00  0.00000000E+00  1.60000000E+01
  1.00800000E+00  1.00800000E+00  0.00000000E+00  1.60000000E+01  1.00800000E+00
  1.00800000E+00  0.00000000E+00  1.60000000E+01  1.00800000E+00  1.00800000E+00
  0.00000000E+00  1.60000000E+01  1.00800000E+00  1.00800000E+00  0.00000000E+00
  1.60000000E+01  1.00800000E+00  1.00800000E+00  0.00000000E+00  1.60000000E+01
  1.00800000E+00  1.00800000E+00  0.00000000E+00  1.60000000E+01  1.00800000E+00
  1.00800000E+00  0.00000000E+00  1.60000000E+01  1.00800000E+00  1.00800000E+00
  0.00000000E+00  1.60000000E+01  1.00800000E+00  1.00800000E+00  0.00000000E+00
  1.60000000E+01  1.00800000E+00  1.00800000E+00  0.00000000E+00  1.60000000E+01
  1.00800000E+00  1.00800000E+00  0.00000000E+00  1.60000000E+01  1.00800000E+00
  1.00800000E+00  0.00000000E+00  1.60000000E+01  1.00800000E+00  1.00800000E+00
  0.00000000E+00  1.60000000E+01  1.00800000E+00  1.00800000E+00  0.00000000E+00
  1.60000000E+01  1.00800000E+00  1.00800000E+00  0.00000000E+00  1.60000000E+01
  1.00800000E+00  1.00800000E+00  0.00000000E+00  1.60000000E+01  1.00800000E+00
  1.00800000E+00  0.00000000E+00  1.60000000E+01  1.00800000E+00  1.00800000E+00
  0.00000000E+00  1.60000000E+01  1.00800000E+00  1.00800000E+00  0.00000000E+00
  1.60000000E+01  1.00800000E+00  1.00800000E+00  0.00000000E+00  1.60000000E+01
  1.00800000E+00  1.00800000E+00  0.00000000E+00  1.60000000E+01  1.00800000E+00
  1.00800000E+00  0.00000000E+00  1.60000000E+01  1.00800000E+00  1.00800000E+00
  0.00000000E+00  1.60000000E+01  1.00800000E+00  1.00800000E+00  0.00000000E+00
  1.60000000E+01  1.00800000E+00  1.00800000E+00  0.00000000E+00  1.60000000E+01
  1.00800000E+00  1.00800000E+00  0.00000000E+00  1.60000000E+01  1.00800000E+00
  1.00800000E+00  0.00000000E+00  1.60000000E+01  1.00800000E+00  1.00800000E+00
  0.00000000E+00  1.60000000E+01  1.00800000E+00  1.00800000E+00  0.00000000E+00
  1.60000000E+01  1.00800000E+00  1.00800000E+00  0.00000000E+00  1.60000000E+01
  1.00800000E+00  1.00800000E+00  0.00000000E+00  1.60000000E+01  1.00800000E+00
  1.00800000E+00  0.00000000E+00  1.60000000E+01  1.00800000E+00  1.00800000E+00
  0.00000000E+00  1.60000000E+01  1.00800000E+00  1.00800000E+00  0.00000000E+00
  1.60000000E+01  1.00800000E+00  1.00800000E+00  0.00000000E+00  1.60000000E+01
  1.00800000E+00  1.00800000E+00  0.00000000E+00  1.60000000E+01  1.00800000E+00
  1.00800000E+00  0.00000000E+00  1.60000000E+01  1.00800000E+00  1.00800000E+00
  0.00000000E+00  1.60000000E+01  1.00800000E+00  1.00800000E+00  0.00000000E+00
  1.60000000E+01  1.00800000E+00  1.00800000E+00  0.00000000E+00  1.60000000E+01
  1.00800000E+00  1.00800000E+00  0.00000000E+00  1.60000000E+01  1.00800000E+00
  1.00800000E+00  0.00000000E+00  1.60000000E+01  1.00800000E+00  1.00800000E+00
  0.00000000E+00  1.60000000E+01  1.00800000E+00  1.00800000E+00  0.00000000E+00
  1.60000000E+01  1.00800000E+00  1.00800000E+00  0.00000000E+00  1.60000000E+01
  1.00800000E+00  1.00800000E+00  0.00000000E+00  1.60000000E+01  1.00800000E+00
  1.00800000E+00  0.00000000E+00  1.60000000E+01  1.00800000E+00  1.00800000E+00
  0.00000000E+00  1.60000000E+01  1.00800000E+00  1.00800000E+00  0.00000000E+00
  1.60000000E+01  1.00800000E+00  1.00800000E+00  0.00000000E+00  1.60000000E+01
  1.00800000E+00  1.00800000E+00  0.00000000E+00  1.60000000E+01  1.00800000E+00
  1.00800000E+00  0.00000000E+00  1.60000000E+01  1.00800000E+00  1.00800000E+00
  0.00000000E+00  1.60000000E+01  1.00800000E+00  1.00800000E+00  0.00000000E+00
  1.60000000E+01  1.00800000E+00  1.00800000E+00  0.00000000E+00  1.60000000E+01
  1.00800000E+00  1.00800000E+00  0.00000000E+00  1.60000000E+01  1.00800000E+00
  1.00800000E+00  0.00000000E+00  1.60000000E+01  1.00800000E+00  1.00800000E+00
  0.00000000E+00  1.60000000E+01  1.00800000E+00  1.00800000E+00  0.00000000E+00
  1.60000000E+01  1.00800000E+00  1.00800000E+00  0.00000000E+00  1.60000000E+01
  1.00800000E+00  1.00800000E+00  0.00000000E+00  1.60000000E+01  1.00800000E+00
  1.00800000E+00  0.00000000E+00  1.60000000E+01  1.00800000E+00  1.00800000E+00
  0.00000000E+00  1.60000000E+01  1.00800000E+00  1.00800000E+00  0.00000000E+00
  1.60000000E+01  1.00800000E+00  1.00800000E+00  0.00000000E+00  1.60000000E+01
  1.00800000E+00  1.00800000E+00  0.00000000E+00  1.60000000E+01  1.00800000E+00
  1.00800000E+00  0.00000000E+00  1.60000000E+01  1.00800000E+00  1.00800000E+00
  0.00000000E+00  1.60000000E+01  1.00800000E+00  1.00800000E+00  0.00000000E+00
  1.60000000E+01  1.00800000E+00  1.00800000E+00  0.00000000E+00  1.60000000E+01
  1.00800000E+00  1.00800000E+00  0.00000000E+00  1.60000000E+01  1.00800000E+00
  1.00800000E+00  0.00000000E+00  1.60000000E+01  1.00800000E+00  1.00800000E+00
  0.00000000E+00  1.60000000E+01  1.00800000E+00  1.00800000E+00  0.00000000E+00
  1.60000000E+01  1.00800000E+00  1.00800000E+00  0.00000000E+00  1.60000000E+01
  1.00800000E+00  1.00800000E+00  0.00000000E+00  1.60000000E+01  1.00800000E+00
  1.00800000E+00  0.00000000E+00  1.60000000E+01  1.00800000E+00  1.00800000E+00
  0.00000000E+00  1.60000000E+01  1.00800000E+00  1.00800000E+00  0.00000000E+00
  1.60000000E+01  1.00800000E+00  1.00800000E+00  0.00000000E+00  1.60000000E+01
  1.00800000E+00  1.00800000E+00  0.00000000E+00  1.60000000E+01  1.00800000E+00
  1.00800000E+00  0.00000000E+00  1.60000000E+01  1.00800000E+00  1.00800000E+00
  0.00000000E+00  1.60000000E+01  1.00800000E+00  1.00800000E+00  0.00000000E+00
  1.60000000E+01  1.00800000E+00  1.00800000E+00  0.00000000E+00  1.60000000E+01
  1.00800000E+00  1.00800000E+00  0.00000000E+00  1.60000000E+01  1.00800000E+00
  1.00800000E+00  0.00000000E+00  1.60000000E+01  1.00800000E+00  1.00800000E+00
  0.00000000E+00  1.60000000E+01  1.00800000E+00  1.00800000E+00  0.00000000E+00
  1.60000000E+01  1.00800000E+00  1.00800000E+00  0.00000000E+00  1.60000000E+01
  1.00800000E+00  1.00800000E+00  0.00000000E+00  1.60000000E+01  1.00800000E+00
  1.00800000E+00  0.00000000E+00  1.60000000E+01  1.00800000E+00  1.00800000E+00
  0.00000000E+00  1.60000000E+01  1.00800000E+00  1.00800000E+00  0.00000000E+00
  1.60000000E+01  1.00800000E+00  1.00800000E+00  0.00000000E+00  1.60000000E+01
  1.00800000E+00  1.00800000E+00  0.00000000E+00  1.60000000E+01  1.00800000E+00
  1.00800000E+00  0.00000000E+00  1.60000000E+01  1.00800000E+00  1.00800000E+00
  0.00000000E+00  1.60000000E+01  1.00800000E+00  1.00800000E+00  0.00000000E+00
  1.60000000E+01  1.00800000E+00  1.00800000E+00  0.00000000E+00  1.60000000E+01
  1.00800000E+00  1.00800000E+00  0.00000000E+00  1.60000000E+01  1.00800000E+00
  1.00800000E+00  0.00000000E+00  1.60000000E+01  1.00800000E+00  1.00800000E+00
  0.00000000E+00  1.60000000E+01  1.00800000E+00  1.00800000E+00  0.00000000E+00
  1.60000000E+01  1.00800000E+00  1.00800000E+00  0.00000000E+00  1.60000000E+01
  1.00800000E+00  1.00800000E+00  0.00000000E+00  1.60000000E+01  1.00800000E+00
  1.00800000E+00  0.00000000E+00  1.60000000E+01  1.00800000E+00  1.00800000E+00
  0.00000000E+00  1.60000000E+01  1.00800000E+00  1.00800000E+00  0.00000000E+00
  1.60000000E+01  1.00800000E+00  1.00800000E+00  0.00000000E+00  1.60000000E+01
  1.00800000E+00  1.00800000E+00  0.00000000E+00  1.60000000E+01  1.00800000E+00
  1.00800000E+00  0.00000000E+00  1.60000000E+01  1.00800000E+00  1.00800000E+00
  0.00000000E+00  1.60000000E+01  1.00800000E+00  1.00800000E+00  0.00000000E+00
  1.60000000E+01  1.00800000E+00  1.00800000E+00  0.00000000E+00  1.60000000E+01
  1.00800000E+00  1.00800000E+00  0.00000000E+00  1.60000000E+01  1.00800000E+00
  1.00800000E+00  0.00000000E+00  1.60000000E+01  1.00800000E+00  1.00800000E+00
  0.00000000E+00  1.60000000E+01  1.00800000E+00  1.00800000E+00  0.00000000E+00
  1.60000000E+01  1.00800000E+00  1.00800000E+00  0.00000000E+00  1.60000000E+01
  1.00800000E+00  1.00800000E+00  0.00000000E+00  1.60000000E+01  1.00800000E+00
  1.00800000E+00  0.00000000E+00  1.60000000E+01  1.00800000E+00  1.00800000E+00
  0.00000000E+00  1.60000000E+01  1.00800000E+00  1.00800000E+00  0.00000000E+00
  1.60000000E+01  1.00800000E+00  1.00800000E+00  0.00000000E+00  1.60000000E+01
  1.00800000E+00  1.00800000E+00  0.00000000E+00  1.60000000E+01  1.00800000E+00
  1.00800000E+00  0.00000000E+00  1.60000000E+01  1.00800000E+00  1.00800000E+00
  0.00000000E+00  1.60000000E+01  1.00800000E+00  1.00800000E+00  0.00000000E+00
  1.60000000E+01  1.00800000E+00  1.00800000E+00  0.00000000E+00  1.60000000E+01
  1.00800000E+00  1.00800000E+00  0.00000000E+00  1.60000000E+01  1.00800000E+00
  1.00800000E+00  0.00000000E+00  1.60000000E+01  1.00800000E+00  1.00800000E+00
  0.00000000E+00  1.60000000E+01  1.00800000E+00  1.00800000E+00  0.00000000E+00
  1.60000000E+01  1.00800000E+00  1.00800000E+00  0.00000000E+00  1.60000000E+01
  1.00800000E+00  1.00800000E+00  0.00000000E+00  1.60000000E+01  1.00800000E+00
  1.00800000E+00  0.00000000E+00  1.60000000E+01  1.00800000E+00  1.00800000E+00
  0.00000000E+00  1.60000000E+01  1.00800000E+00  1.00800000E+00  0.00000000E+00
  1.60000000E+01  1.00800000E+00  1.00800000E+00  0.00000000E+00  1.60000000E+01
  1.00800000E+00  1.00800000E+00  0.00000000E+00  1.60000000E+01  1.00800000E+00
  1.00800000E+00  0.00000000E+00  1.60000000E+01  1.00800000E+00  1.00800000E+00
  0.00000000E+00  1.60000000E+01  1.00800000E+00  1.00800000E+00  0.00000000E+00
  1.60000000E+01  1.00800000E+00  1.00800000E+00  0.00000000E+00  1.60000000E+01
  1.00800000E+00  1.00800000E+00  0.00000000E+00  1.60000000E+01  1.00800000E+00
  1.00800000E+00  0.00000000E+00  1.60000000E+01  1.00800000E+00  1.00800000E+00
  0.00000000E+00  1.60000000E+01  1.00800000E+00  1.00800000E+00  0.00000000E+00
  1.60000000E+01  1.00800000E+00  1.00800000E+00  0.00000000E+00  1.60000000E+01
  1.00800000E+00  1.00800000E+00  0.00000000E+00  1.60000000E+01  1.00800000E+00
  1.00800000E+00  0.00000000E+00  1.60000000E+01  1.00800000E+00  1.00800000E+00
  0.00000000E+00  1.60000000E+01  1.00800000E+00  1.00800000E+00  0.00000000E+00
  1.60000000E+01  1.00800000E+00  1.00800000E+00  0.00000000E+00  1.60000000E+01
  1.00800000E+00  1.00800000E+00  0.00000000E+00  1.60000000E+01  1.00800000E+00
  1.00800000E+00  0.00000000E+00  1.60000000E+01  1.00800000E+00  1.00800000E+00
  0.00000000E+00  1.60000000E+01  1.00800000E+00  1.00800000E+00  0.00000000E+00
  1.60000000E+01  1.00800000E+00  1.00800000E+00  0.00000000E+00  1.60000000E+01
  1.00800000E+00  1.00800000E+00  0.00000000E+00  1.60000000E+01  1.00800000E+00
  1.00800000E+00  0.00000000E+00  1.60000000E+01  1.00800000E+00  1.00800000E+00
  0.00000000E+00  1.60000000E+01  1.00800000E+00  1.00800000E+00  0.00000000E+00
  1.60000000E+01  1.00800000E+00  1.00800000E+00  0.00000000E+00  1.60000000E+01
  1.00800000E+00  1.00800000E+00  0.00000000E+00  1.60000000E+01  1.00800000E+00
  1.00800000E+00  0.00000000E+00  1.60000000E+01  1.00800000E+00  1.00800000E+00
  0.00000000E+00  1.60000000E+01  1.00800000E+00  1.00800000E+00  0.00000000E+00
  1.60000000E+01  1.00800000E+00  1.00800000E+00  0.00000000E+00  1.60000000E+01
  1.00800000E+00  1.00800000E+00  0.00000000E+00  1.60000000E+01  1.00800000E+00
  1.00800000E+00  0.00000000E+00  1.60000000E+01  1.00800000E+00  1.00800000E+00
  0.00000000E+00  1.60000000E+01  1.00800000E+00  1.00800000E+00  0.00000000E+00
  1.60000000E+01  1.00800000E+00  1.00800000E+00  0.00000000E+00  1.60000000E+01
  1.00800000E+00  1.00800000E+00  0.00000000E+00  1.60000000E+01  1.00800000E+00
  1.00800000E+00  0.00000000E+00  1.60000000E+01  1.00800000E+00  1.00800000E+00
  0.00000000E+00  1.60000000E+01  1.00800000E+00  1.00800000E+00  0.00000000E+00
  1.60000000E+01  1.00800000E+00  1.00800000E+00  0.00000000E+00  1.60000000E+01
  1.00800000E+00  1.00800000E+00  0.00000000E+00  1.60000000E+01  1.00800000E+00
  1.00800000E+00  0.00000000E+00  1.60000000E+01  1.00800000E+00  1.00800000E+00
  0.00000000E+00  1.60000000E+01  1.00800000E+00  1.00800000E+00  0.00000000E+00
  1.60000000E+01  1.00800000E+00  1.00800000E+00  0.00000000E+00  1.60000000E+01
  1.00800000E+00  1.00800000E+00  0.00000000E+00  1.60000000E+01  1.00800000E+00
  1.00800000E+00  0.00000000E+00  1.60000000E+01  1.00800000E+00  1.00800000E+00
  0.00000000E+00  1.60000000E+01  1.00800000E+00  1.00800000E+00  0.00000000E+00
  1.60000000E+01  1.00800000E+00  1.00800000E+00  0.00000000E+00  1.60000000E+01
  1.00800000E+00  1.00800000E+00  0.00000000E+00  1.60000000E+01  1.00800000E+00
  1.00800000E+00  0.00000000E+00  1.60000000E+01  1.00800000E+00  1.00800000E+00
  0.00000000E+00  1.60000000E+01  1.00800000E+00  1.00800000E+00  0.00000000E+00
  1.60000000E+01  1.00800000E+00  1.00800000E+00  0.00000000E+00  1.60000000E+01
  1.00800000E+00  1.00800000E+00  0.00000000E+00  1.60000000E+01  1.00800000E+00
  1.00800000E+00  0.00000000E+00  1.60000000E+01  1.00800000E+00  1.00800000E+00
  0.00000000E+00  1.60000000E+01  1.00800000E+00  1.00800000E+00  0.00000000E+00
  1.60000000E+01  1.00800000E+00  1.00800000E+00  0.00000000E+00  1.60000000E+01
  1.00800000E+00  1.00800000E+00  0.00000000E+00  1.60000000E+01  1.00800000E+00
  1.00800000E+00  0.00000000E+00  1.60000000E+01  1.00800000E+00  1.00800000E+00
  0.00000000E+00  1.60000000E+01  1.00800000E+00  1.00800000E+00  0.00000000E+00
  1.60000000E+01  1.00800000E+00  1.00800000E+00  0.00000000E+00  1.60000000E+01
  1.00800000E+00  1.00800000E+00  0.00000000E+00  1.60000000E+01  1.00800000E+00
  1.00800000E+00  0.00000000E+00  1.60000000E+01  1.00800000E+00  1.00800000E+00
  0.00000000E+00  1.60000000E+01  1.00800000E+00  1.00800000E+00  0.00000000E+00
  1.60000000E+01  1.00800000E+00  1.00800000E+00  0.00000000E+00  1.60000000E+01
  1.00800000E+00  1.00800000E+00  0.00000000E+00  1.60000000E+01  1.00800000E+00
  1.00800000E+00  0.00000000E+00  1.60000000E+01  1.00800000E+00  1.00800000E+00
  0.00000000E+00  1.60000000E+01  1.00800000E+00  1.00800000E+00  0.00000000E+00
  1.60000000E+01  1.00800000E+00  1.00800000E+00  0.00000000E+00  1.60000000E+01
  1.00800000E+00  1.00800000E+00  0.00000000E+00  1.60000000E+01  1.00800000E+00
  1.00800000E+00  0.00000000E+00  1.60000000E+01  1.00800000E+00  1.00800000E+00
  0.00000000E+00  1.60000000E+01  1.00800000E+00  1.00800000E+00  0.00000000E+00
  1.60000000E+01  1.00800000E+00  1.00800000E+00  0.00000000E+00  1.60000000E+01
  1.00800000E+00  1.00800000E+00  0.00000000E+00  1.60000000E+01  1.00800000E+00
  1.00800000E+00  0.00000000E+00  1.60000000E+01  1.00800000E+00  1.00800000E+00
  0.00000000E+00  1.60000000E+01  1.00800000E+00  1.00800000E+00  0.00000000E+00
  1.60000000E+01  1.00800000E+00  1.00800000E+00  0.00000000E+00  1.60000000E+01
  1.00800000E+00  1.00800000E+00  0.00000000E+00  1.60000000E+01  1.00800000E+00
  1.00800000E+00  0.00000000E+00  1.60000000E+01  1.00800000E+00  1.00800000E+00
  0.00000000E+00  1.60000000E+01  1.00800000E+00  1.00800000E+00  0.00000000E+00
  1.60000000E+01  1.00800000E+00  1.00800000E+00  0.00000000E+00  1.60000000E+01
  1.00800000E+00  1.00800000E+00  0.00000000E+00  1.60000000E+01  1.00800000E+00
  1.00800000E+00  0.00000000E+00  1.60000000E+01  1.00800000E+00  1.00800000E+00
  0.00000000E+00  1.60000000E+01  1.00800000E+00  1.00800000E+00  0.00000000E+00
  1.60000000E+01  1.00800000E+00  1.00800000E+00  0.00000000E+00  1.60000000E+01
  1.00800000E+00  1.00800000E+00  0.00000000E+00  1.60000000E+01  1.00800000E+00
  1.00800000E+00  0.00000000E+00  1.60000000E+01  1.00800000E+00  1.00800000E+00
  0.00000000E+00  1.60000000E+01  1.00800000E+00  1.00800000E+00  0.00000000E+00
  1.60000000E+01  1.00800000E+00  1.00800000E+00  0.00000000E+00  1.60000000E+01
  1.00800000E+00  1.00800000E+00  0.00000000E+00  1.60000000E+01  1.00800000E+00
  1.00800000E+00  0.00000000E+00  1.60000000E+01  1.00800000E+00  1.00800000E+00
  0.00000000E+00  1.60000000E+01  1.00800000E+00  1.00800000E+00  0.00000000E+00
  1.60000000E+01  1.00800000E+00  1.00800000E+00  0.00000000E+00  1.60000000E+01
  1.00800000E+00  1.00800000E+00  0.00000000E+00  1.60000000E+01  1.00800000E+00
  1.00800000E+00  0.00000000E+00  1.60000000E+01  1.00800000E+00  1.00800000E+00
  0.00000000E+00  1.60000000E+01  1.00800000E+00  1.00800000E+00  0.00000000E+00
  1.60000000E+01  1.00800000E+00  1.00800000E+00  0.00000000E+00  1.60000000E+01
  1.00800000E+00  1.00800000E+00  0.00000000E+00  1.60000000E+01  1.00800000E+00
  1.00800000E+00  0.00000000E+00  1.60000000E+01  1.00800000E+00  1.00800000E+00
  0.00000000E+00  1.60000000E+01  1.00800000E+00  1.00800000E+00  0.00000000E+00
  1.60000000E+01  1.00800000E+00  1.00800000E+00  0.00000000E+00  1.60000000E+01
  1.00800000E+00  1.00800000E+00  0.00000000E+00  1.60000000E+01  1.00800000E+00
  1.00800000E+00  0.00000000E+00  1.60000000E+01  1.00800000E+00  1.00800000E+00
  0.00000000E+00  1.60000000E+01  1.00800000E+00  1.00800000E+00  0.00000000E+00
  1.60000000E+01  1.00800000E+00  1.00800000E+00  0.00000000E+00  1.60000000E+01
  1.00800000E+00  1.00800000E+00  0.00000000E+00  1.60000000E+01  1.00800000E+00
  1.00800000E+00  0.00000000E+00  1.60000000E+01  1.00800000E+00  1.00800000E+00
  0.00000000E+00  1.60000000E+01  1.00800000E+00  1.00800000E+00  0.00000000E+00
  1.60000000E+01  1.00800000E+00  1.00800000E+00  0.00000000E+00  1.60000000E+01
  1.00800000E+00  1.00800000E+00  0.00000000E+00  1.60000000E+01  1.00800000E+00
  1.00800000E+00  0.00000000E+00  1.60000000E+01  1.00800000E+00  1.00800000E+00
  0.00000000E+00  1.60000000E+01  1.00800000E+00  1.00800000E+00  0.00000000E+00
  1.60000000E+01  1.00800000E+00  1.00800000E+00  0.00000000E+00  1.60000000E+01
  1.00800000E+00  1.00800000E+00  0.00000000E+00  1.60000000E+01  1.00800000E+00
  1.00800000E+00  0.00000000E+00  1.60000000E+01  1.00800000E+00  1.00800000E+00
  0.00000000E+00  1.60000000E+01  1.00800000E+00  1.00800000E+00  0.00000000E+00
  1.60000000E+01  1.00800000E+00  1.00800000E+00  0.00000000E+00  1.60000000E+01
  1.00800000E+00  1.00800000E+00  0.00000000E+00  1.60000000E+01  1.00800000E+00
  1.00800000E+00  0.00000000E+00  1.60000000E+01  1.00800000E+00  1.00800000E+00
  0.00000000E+00  1.60000000E+01  1.00800000E+00  1.00800000E+00  0.00000000E+00
  1.60000000E+01  1.00800000E+00  1.00800000E+00  0.00000000E+00  1.60000000E+01
  1.00800000E+00  1.00800000E+00  0.00000000E+00  1.60000000E+01  1.00800000E+00
  1.00800000E+00  0.00000000E+00  1.60000000E+01  1.00800000E+00  1.00800000E+00
  0.00000000E+00  1.60000000E+01  1.00800000E+00  1.00800000E+00  0.00000000E+00
  1.60000000E+01  1.00800000E+00  1.00800000E+00  0.00000000E+00  1.60000000E+01
  1.00800000E+00  1.00800000E+00  0.00000000E+00  1.60000000E+01  1.00800000E+00
  1.00800000E+00  0.00000000E+00  1.60000000E+01  1.00800000E+00  1.00800000E+00
  0.00000000E+00  1.60000000E+01  1.00800000E+00  1.00800000E+00  0.00000000E+00
  1.60000000E+01  1.00800000E+00  1.00800000E+00  0.00000000E+00  1.60000000E+01
  1.00800000E+00  1.00800000E+00  0.00000000E+00  1.60000000E+01  1.00800000E+00
  1.00800000E+00  0.00000000E+00  1.60000000E+01  1.00800000E+00  1.00800000E+00
  0.00000000E+00  1.60000000E+01  1.00800000E+00  1.00800000E+00  0.00000000E+00
  1.60000000E+01  1.00800000E+00  1.00800000E+00  0.00000000E+00  1.60000000E+01
  1.00800000E+00  1.00800000E+00  0.00000000E+00  1.60000000E+01  1.00800000E+00
  1.00800000E+00  0.00000000E+00  1.60000000E+01  1.00800000E+00  1.00800000E+00
  0.00000000E+00  1.60000000E+01  1.00800000E+00  1.00800000E+00  0.00000000E+00
  1.60000000E+01  1.00800000E+00  1.00800000E+00  0.00000000E+00  1.60000000E+01
  1.00800000E+00  1.00800000E+00  0.00000000E+00  1.60000000E+01  1.00800000E+00
  1.00800000E+00  0.00000000E+00  1.60000000E+01  1.00800000E+00  1.00800000E+00
  0.00000000E+00  1.60000000E+01  1.00800000E+00  1.00800000E+00  0.00000000E+00
  1.60000000E+01  1.00800000E+00  1.00800000E+00  0.00000000E+00  1.60000000E+01
  1.00800000E+00  1.00800000E+00  0.00000000E+00  1.60000000E+01  1.00800000E+00
  1.00800000E+00  0.00000000E+00  1.60000000E+01  1.00800000E+00  1.00800000E+00
  0.00000000E+00  1.60000000E+01  1.00800000E+00  1.00800000E+00  0.00000000E+00
  1.60000000E+01  1.00800000E+00  1.00800000E+00  0.00000000E+00  1.60000000E+01
  1.00800000E+00  1.00800000E+00  0.00000000E+00  1.60000000E+01  1.00800000E+00
  1.00800000E+00  0.00000000E+00  1.60000000E+01  1.00800000E+00  1.00800000E+00
  0.00000000E+00  1.60000000E+01  1.00800000E+00  1.00800000E+00  0.00000000E+00
  1.60000000E+01  1.00800000E+00  1.00800000E+00  0.00000000E+00  1.60000000E+01
  1.00800000E+00  1.00800000E+00  0.00000000E+00  1.60000000E+01  1.00800000E+00
  1.00800000E+00  0.00000000E+00  1.60000000E+01  1.00800000E+00  1.00800000E+00
  0.00000000E+00  1.60000000E+01  1.00800000E+00  1.00800000E+00  0.00000000E+00
  1.60000000E+01  1.00800000E+00  1.00800000E+00  0.00000000E+00  1.60000000E+01
  1.00800000E+00  1.00800000E+00  0.00000000E+00  1.60000000E+01  1.00800000E+00
  1.00800000E+00  0.00000000E+00  1.60000000E+01  1.00800000E+00  1.00800000E+00
  0.00000000E+00  1.60000000E+01  1.00800000E+00  1.00800000E+00  0.00000000E+00
  1.60000000E+01  1.00800000E+00  1.00800000E+00  0.00000000E+00  1.60000000E+01
  1.00800000E+00  1.00800000E+00  0.00000000E+00  1.60000000E+01  1.00800000E+00
  1.00800000E+00  0.00000000E+00  1.60000000E+01  1.00800000E+00  1.00800000E+00
  0.00000000E+00  1.60000000E+01  1.00800000E+00  1.00800000E+00  0.00000000E+00
  1.60000000E+01  1.00800000E+00  1.00800000E+00  0.00000000E+00  1.60000000E+01
  1.00800000E+00  1.00800000E+00  0.00000000E+00  1.60000000E+01  1.00800000E+00
  1.00800000E+00  0.00000000E+00  1.60000000E+01  1.00800000E+00  1.00800000E+00
  0.00000000E+00  1.60000000E+01  1.00800000E+00  1.00800000E+00  0.00000000E+00
  1.60000000E+01  1.00800000E+00  1.00800000E+00  0.00000000E+00  1.60000000E+01
  1.00800000E+00  1.00800000E+00  0.00000000E+00  1.60000000E+01  1.00800000E+00
  1.00800000E+00  0.00000000E+00  1.60000000E+01  1.00800000E+00  1.00800000E+00
  0.00000000E+00  1.60000000E+01  1.00800000E+00  1.00800000E+00  0.00000000E+00
  1.60000000E+01  1.00800000E+00  1.00800000E+00  0.00000000E+00  1.60000000E+01
  1.00800000E+00  1.00800000E+00  0.00000000E+00  1.60000000E+01  1.00800000E+00
  1.00800000E+00  0.00000000E+00  1.60000000E+01  1.00800000E+00  1.00800000E+00
  0.00000000E+00  1.60000000E+01  1.00800000E+00  1.00800000E+00  0.00000000E+00
  1.60000000E+01  1.00800000E+00  1.00800000E+00  0.00000000E+00  1.60000000E+01
  1.00800000E+00  1.00800000E+00  0.00000000E+00  1.60000000E+01  1.00800000E+00
  1.00800000E+00  0.00000000E+00  1.60000000E+01  1.00800000E+00  1.00800000E+00
  0.00000000E+00  1.60000000E+01  1.00800000E+00  1.00800000E+00  0.00000000E+00
  1.60000000E+01  1.00800000E+00  1.00800000E+00  0.00000000E+00  1.60000000E+01
  1.00800000E+00  1.00800000E+00  0.00000000E+00  1.60000000E+01  1.00800000E+00
  1.00800000E+00  0.00000000E+00  1.60000000E+01  1.00800000E+00  1.00800000E+00
  0.00000000E+00  1.60000000E+01  1.00800000E+00  1.00800000E+00  0.00000000E+00
  1.60000000E+01  1.00800000E+00  1.00800000E+00  0.00000000E+00  1.60000000E+01
  1.00800000E+00  1.00800000E+00  0.00000000E+00  1.60000000E+01  1.00800000E+00
  1.00800000E+00  0.00000000E+00  1.60000000E+01  1.00800000E+00  1.00800000E+00
  0.00000000E+00  1.60000000E+01  1.00800000E+00  1.00800000E+00  0.00000000E+00
  1.60000000E+01  1.00800000E+00  1.00800000E+00  0.00000000E+00  1.60000000E+01
  1.00800000E+00  1.00800000E+00  0.00000000E+00  1.60000000E+01  1.00800000E+00
  1.00800000E+00  0.00000000E+00  1.60000000E+01  1.00800000E+00  1.00800000E+00
  0.00000000E+00  1.60000000E+01  1.00800000E+00  1.00800000E+00  0.00000000E+00
  1.60000000E+01  1.00800000E+00  1.00800000E+00  0.00000000E+00  1.60000000E+01
  1.00800000E+00  1.00800000E+00  0.00000000E+00  1.60000000E+01  1.00800000E+00
  1.00800000E+00  0.00000000E+00  1.60000000E+01  1.00800000E+00  1.00800000E+00
  0.00000000E+00  1.60000000E+01  1.00800000E+00  1.00800000E+00  0.00000000E+00
  1.60000000E+01  1.00800000E+00  1.00800000E+00  0.00000000E+00  1.60000000E+01
  1.00800000E+00  1.00800000E+00  0.00000000E+00  1.60000000E+01  1.00800000E+00
  1.00800000E+00  0.00000000E+00  1.60000000E+01  1.00800000E+00  1.00800000E+00
  0.00000000E+00  1.60000000E+01  1.00800000E+00  1.00800000E+00  0.00000000E+00
  1.60000000E+01  1.00800000E+00  1.00800000E+00  0.00000000E+00  1.60000000E+01
  1.00800000E+00  1.00800000E+00  0.00000000E+00  1.60000000E+01  1.00800000E+00
  1.00800000E+00  0.00000000E+00  1.60000000E+01  1.00800000E+00  1.00800000E+00
  0.00000000E+00  1.60000000E+01  1.00800000E+00  1.00800000E+00  0.00000000E+00
  1.60000000E+01  1.00800000E+00  1.00800000E+00  0.00000000E+00  1.60000000E+01
  1.00800000E+00  1.00800000E+00  0.00000000E+00  1.60000000E+01  1.00800000E+00
  1.00800000E+00  0.00000000E+00  1.60000000E+01  1.00800000E+00  1.00800000E+00
  0.00000000E+00  1.60000000E+01  1.00800000E+00  1.00800000E+00  0.00000000E+00
  1.60000000E+01  1.00800000E+00  1.00800000E+00  0.00000000E+00  1.60000000E+01
  1.00800000E+00  1.00800000E+00  0.00000000E+00  1.60000000E+01  1.00800000E+00
  1.00800000E+00  0.00000000E+00  1.60000000E+01  1.00800000E+00  1.00800000E+00
  0.00000000E+00  1.60000000E+01  1.00800000E+00  1.00800000E+00  0.00000000E+00
  1.60000000E+01  1.00800000E+00  1.00800000E+00  0.00000000E+00  1.60000000E+01
  1.00800000E+00  1.00800000E+00  0.00000000E+00  1.60000000E+01  1.00800000E+00
  1.00800000E+00  0.00000000E+00  1.60000000E+01  1.00800000E+00  1.00800000E+00
  0.00000000E+00  1.60000000E+01  1.00800000E+00  1.00800000E+00  0.00000000E+00
  1.60000000E+01  1.00800000E+00  1.00800000E+00  0.00000000E+00  1.60000000E+01
  1.00800000E+00  1.00800000E+00  0.00000000E+00  1.60000000E+01  1.00800000E+00
  1.00800000E+00  0.00000000E+00  1.60000000E+01  1.00800000E+00  1.00800000E+00
  0.00000000E+00  1.60000000E+01  1.00800000E+00  1.00800000E+00  0.00000000E+00
  1.60000000E+01  1.00800000E+00  1.00800000E+00  0.00000000E+00  1.60000000E+01
  1.00800000E+00  1.00800000E+00  0.00000000E+00  1.60000000E+01  1.00800000E+00
  1.00800000E+00  0.00000000E+00  1.60000000E+01  1.00800000E+00  1.00800000E+00
  0.00000000E+00  1.60000000E+01  1.00800000E+00  1.00800000E+00  0.00000000E+00
  1.60000000E+01  1.00800000E+00  1.00800000E+00  0.00000000E+00  1.60000000E+01
  1.00800000E+00  1.00800000E+00  0.00000000E+00  1.60000000E+01  1.00800000E+00
  1.00800000E+00  0.00000000E+00  1.60000000E+01  1.00800000E+00  1.00800000E+00
  0.00000000E+00  1.60000000E+01  1.00800000E+00  1.00800000E+00  0.00000000E+00
  1.60000000E+01  1.00800000E+00  1.00800000E+00  0.00000000E+00  1.60000000E+01
  1.00800000E+00  1.00800000E+00  0.00000000E+00  1.60000000E+01  1.00800000E+00
  1.00800000E+00  0.00000000E+00  1.60000000E+01  1.00800000E+00  1.00800000E+00
  0.00000000E+00  1.60000000E+01  1.00800000E+00  1.00800000E+00  0.00000000E+00
  1.60000000E+01  1.00800000E+00  1.00800000E+00  0.00000000E+00  1.60000000E+01
  1.00800000E+00  1.00800000E+00  0.00000000E+00  1.60000000E+01  1.00800000E+00
  1.00800000E+00  0.00000000E+00  1.60000000E+01  1.00800000E+00  1.00800000E+00
  0.00000000E+00  1.60000000E+01  1.00800000E+00  1.00800000E+00  0.00000000E+00
  1.60000000E+01  1.00800000E+00  1.00800000E+00  0.00000000E+00  1.60000000E+01
  1.00800000E+00  1.00800000E+00  0.00000000E+00  1.60000000E+01  1.00800000E+00
  1.00800000E+00  0.00000000E+00  1.60000000E+01  1.00800000E+00  1.00800000E+00
  0.00000000E+00  1.60000000E+01  1.00800000E+00  1.00800000E+00  0.00000000E+00
  1.60000000E+01  1.00800000E+00  1.00800000E+00  0.00000000E+00  1.60000000E+01
  1.00800000E+00  1.00800000E+00  0.00000000E+00  1.60000000E+01  1.00800000E+00
  1.00800000E+00  0.00000000E+00  1.60000000E+01  1.00800000E+00  1.00800000E+00
  0.00000000E+00  1.60000000E+01  1.00800000E+00  1.00800000E+00  0.00000000E+00
  1.60000000E+01  1.00800000E+00  1.00800000E+00  0.00000000E+00  1.60000000E+01
  1.00800000E+00  1.00800000E+00  0.00000000E+00  1.60000000E+01  1.00800000E+00
  1.00800000E+00  0.00000000E+00  1.60000000E+01  1.00800000E+00  1.00800000E+00
  0.00000000E+00  1.60000000E+01  1.00800000E+00  1.00800000E+00  0.00000000E+00
  1.60000000E+01  1.00800000E+00  1.00800000E+00  0.00000000E+00  1.60000000E+01
  1.00800000E+00  1.00800000E+00  0.00000000E+00  1.60000000E+01  1.00800000E+00
  1.00800000E+00  0.00000000E+00  1.60000000E+01  1.00800000E+00  1.00800000E+00
  0.00000000E+00  1.60000000E+01  1.00800000E+00  1.00800000E+00  0.00000000E+00
  1.60000000E+01  1.00800000E+00  1.00800000E+00  0.00000000E+00  1.60000000E+01
  1.00800000E+00  1.00800000E+00  0.00000000E+00  1.60000000E+01  1.00800000E+00
  1.00800000E+00  0.00000000E+00  1.60000000E+01  1.00800000E+00  1.00800000E+00
  0.00000000E+00  1.60000000E+01  1.00800000E+00  1.00800000E+00  0.00000000E+00
  1.60000000E+01  1.00800000E+00  1.00800000E+00  0.00000000E+00  1.60000000E+01
  1.00800000E+00  1.00800000E+00  0.00000000E+00  1.60000000E+01  1.00800000E+00
  1.00800000E+00  0.00000000E+00  1.60000000E+01  1.00800000E+00  1.00800000E+00
  0.00000000E+00  1.60000000E+01  1.00800000E+00  1.00800000E+00  0.00000000E+00
  1.60000000E+01  1.00800000E+00  1.00800000E+00  0.00000000E+00  1.60000000E+01
  1.00800000E+00  1.00800000E+00  0.00000000E+00  1.60000000E+01  1.00800000E+00
  1.00800000E+00  0.00000000E+00  1.60000000E+01  1.00800000E+00  1.00800000E+00
  0.00000000E+00  1.60000000E+01  1.00800000E+00  1.00800000E+00  0.00000000E+00
  1.60000000E+01  1.00800000E+00  1.00800000E+00  0.00000000E+00  1.60000000E+01
  1.00800000E+00  1.00800000E+00  0.00000000E+00  1.60000000E+01  1.00800000E+00
  1.00800000E+00  0.00000000E+00  1.60000000E+01  1.00800000E+00  1.00800000E+00
  0.00000000E+00  1.60000000E+01  1.00800000E+00  1.00800000E+00  0.00000000E+00
  1.60000000E+01  1.00800000E+00  1.00800000E+00  0.00000000E+00  1.60000000E+01
  1.00800000E+00  1.00800000E+00  0.00000000E+00  1.60000000E+01  1.00800000E+00
  1.00800000E+00  0.00000000E+00  1.60000000E+01  1.00800000E+00  1.00800000E+00
  0.00000000E+00  1.60000000E+01  1.00800000E+00  1.00800000E+00  0.00000000E+00
  1.60000000E+01  1.00800000E+00  1.00800000E+00  0.00000000E+00  1.60000000E+01
  1.00800000E+00  1.00800000E+00  0.00000000E+00  1.60000000E+01  1.00800000E+00
  1.00800000E+00  0.00000000E+00  1.60000000E+01  1.00800000E+00  1.00800000E+00
  0.00000000E+00  1.60000000E+01  1.00800000E+00  1.00800000E+00  0.00000000E+00
  1.60000000E+01  1.00800000E+00  1.00800000E+00  0.00000000E+00  1.60000000E+01
  1.00800000E+00  1.00800000E+00  0.00000000E+00  1.60000000E+01  1.00800000E+00
  1.00800000E+00  0.00000000E+00  1.60000000E+01  1.00800000E+00  1.00800000E+00
  0.00000000E+00  1.60000000E+01  1.00800000E+00  1.00800000E+00  0.00000000E+00
  1.60000000E+01  1.00800000E+00  1.00800000E+00  0.00000000E+00  1.60000000E+01
  1.00800000E+00  1.00800000E+00  0.00000000E+00  1.60000000E+01  1.00800000E+00
  1.00800000E+00  0.00000000E+00  1.60000000E+01  1.00800000E+00  1.00800000E+00
  0.00000000E+00  1.60000000E+01  1.00800000E+00  1.00800000E+00  0.00000000E+00
  1.60000000E+01  1.00800000E+00  1.00800000E+00  0.00000000E+00  1.60000000E+01
  1.00800000E+00  1.00800000E+00  0.00000000E+00  1.60000000E+01  1.00800000E+00
  1.00800000E+00  0.00000000E+00  1.60000000E+01  1.00800000E+00  1.00800000E+00
  0.00000000E+00  1.60000000E+01  1.00800000E+00  1.00800000E+00  0.00000000E+00
  1.60000000E+01  1.00800000E+00  1.00800000E+00  0.00000000E+00  1.60000000E+01
  1.00800000E+00  1.00800000E+00  0.00000000E+00  1.60000000E+01  1.00800000E+00
  1.00800000E+00  0.00000000E+00  1.60000000E+01  1.00800000E+00  1.00800000E+00
  0.00000000E+00  1.60000000E+01  1.00800000E+00  1.00800000E+00  0.00000000E+00
  1.60000000E+01  1.00800000E+00  1.00800000E+00  0.00000000E+00  1.60000000E+01
  1.00800000E+00  1.00800000E+00  0.00000000E+00  1.60000000E+01  1.00800000E+00
  1.00800000E+00  0.00000000E+00  1.60000000E+01  1.00800000E+00  1.00800000E+00
  0.00000000E+00  1.60000000E+01  1.00800000E+00  1.00800000E+00  0.00000000E+00
  1.60000000E+01  1.00800000E+00  1.00800000E+00  0.00000000E+00  1.60000000E+01
  1.00800000E+00  1.00800000E+00  0.00000000E+00  1.60000000E+01  1.00800000E+00
  1.00800000E+00  0.00000000E+00  1.60000000E+01  1.00800000E+00  1.00800000E+00
  0.00000000E+00  1.60000000E+01  1.00800000E+00  1.00800000E+00  0.00000000E+00
  1.60000000E+01  1.00800000E+00  1.00800000E+00  0.00000000E+00  1.60000000E+01
  1.00800000E+00  1.00800000E+00  0.00000000E+00  1.60000000E+01  1.00800000E+00
  1.00800000E+00  0.00000000E+00  1.60000000E+01  1.00800000E+00  1.00800000E+00
  0.00000000E+00  1.60000000E+01  1.00800000E+00  1.00800000E+00  0.00000000E+00
  1.60000000E+01  1.00800000E+00  1.00800000E+00  0.00000000E+00  1.60000000E+01
  1.00800000E+00  1.00800000E+00  0.00000000E+00  1.60000000E+01  1.00800000E+00
  1.00800000E+00  0.00000000E+00  1.60000000E+01  1.00800000E+00  1.00800000E+00
  0.00000000E+00  1.60000000E+01  1.00800000E+00  1.00800000E+00  0.00000000E+00
  1.60000000E+01  1.00800000E+00  1.00800000E+00  0.00000000E+00  1.60000000E+01
  1.00800000E+00  1.00800000E+00  0.00000000E+00  1.60000000E+01  1.00800000E+00
  1.00800000E+00  0.00000000E+00  1.60000000E+01  1.00800000E+00  1.00800000E+00
  0.00000000E+00  1.60000000E+01  1.00800000E+00  1.00800000E+00  0.00000000E+00
  1.60000000E+01  1.00800000E+00  1.00800000E+00  0.00000000E+00  1.60000000E+01
  1.00800000E+00  1.00800000E+00  0.00000000E+00  1.60000000E+01  1.00800000E+00
  1.00800000E+00  0.00000000E+00  1.60000000E+01  1.00800000E+00  1.00800000E+00
  0.00000000E+00  1.60000000E+01  1.00800000E+00  1.00800000E+00  0.00000000E+00
  1.60000000E+01  1.00800000E+00  1.00800000E+00  0.00000000E+00  1.60000000E+01
  1.00800000E+00  1.00800000E+00  0.00000000E+00  1.60000000E+01  1.00800000E+00
  1.00800000E+00  0.00000000E+00  1.60000000E+01  1.00800000E+00  1.00800000E+00
  0.00000000E+00  1.60000000E+01  1.00800000E+00  1.00800000E+00  0.00000000E+00
  1.60000000E+01  1.00800000E+00  1.00800000E+00  0.00000000E+00  1.60000000E+01
  1.00800000E+00  1.00800000E+00  0.00000000E+00  1.60000000E+01  1.00800000E+00
  1.00800000E+00  0.00000000E+00  1.60000000E+01  1.00800000E+00  1.00800000E+00
  0.00000000E+00  1.60000000E+01  1.00800000E+00  1.00800000E+00  0.00000000E+00
  1.60000000E+01  1.00800000E+00  1.00800000E+00  0.00000000E+00  1.60000000E+01
  1.00800000E+00  1.00800000E+00  0.00000000E+00  1.60000000E+01  1.00800000E+00
  1.00800000E+00  0.00000000E+00  1.60000000E+01  1.00800000E+00  1.00800000E+00
  0.00000000E+00  1.60000000E+01  1.00800000E+00  1.00800000E+00  0.00000000E+00
  1.60000000E+01  1.00800000E+00  1.00800000E+00  0.00000000E+00  1.60000000E+01
  1.00800000E+00  1.00800000E+00  0.00000000E+00  1.60000000E+01  1.00800000E+00
  1.00800000E+00  0.00000000E+00  1.60000000E+01  1.00800000E+00  1.00800000E+00
  0.00000000E+00  1.60000000E+01  1.00800000E+00  1.00800000E+00  0.00000000E+00
  1.60000000E+01  1.00800000E+00  1.00800000E+00  0.00000000E+00  1.60000000E+01
  1.00800000E+00  1.00800000E+00  0.00000000E+00  1.60000000E+01  1.00800000E+00
  1.00800000E+00  0.00000000E+00  1.60000000E+01  1.00800000E+00  1.00800000E+00
  0.00000000E+00  1.60000000E+01  1.00800000E+00  1.00800000E+00  0.00000000E+00
  1.60000000E+01  1.00800000E+00  1.00800000E+00  0.00000000E+00  1.60000000E+01
  1.00800000E+00  1.00800000E+00  0.00000000E+00  1.60000000E+01  1.00800000E+00
  1.00800000E+00  0.00000000E+00  1.60000000E+01  1.00800000E+00  1.00800000E+00
  0.00000000E+00  1.60000000E+01  1.00800000E+00  1.00800000E+00  0.00000000E+00
%FLAG ATOM_TYPE_INDEX                                                           
%FORMAT(10I8)                                                                   
       1       2       1       2       1       2       1       2       1       2
       3       4       5       4       5       4       6       3       7       4
       4       7       4       8       9       9      10      10      10      11
       9      12      13      13      14      12      13      13      14      12
      13      13      14      12      13      13      14      12      13      13
      14      12      13      13      14      12      13      13      14      12
      13      13      14      12      13      13      14      12      13      13
      14      12      13      13      14      12      13      13      14      12
      13      13      14      12      13      13      14      12      13      13
      14      12      13      13      14      12      13      13      14      12
      13      13      14      12      13      13      14      12      13      13
      14      12      13      13      14      12      13      13      14      12
      13      13      14      12      13      13      14      12      13      13
      14      12      13      13      14      12      13      13      14      12
      13      13      14      12      13      13      14      12      13      13
      14      12      13      13      14      12      13      13      14      12
      13      13      14      12      13      13      14      12      13      13
      14      12      13      13      14      12      13      13      14      12
      13      13      14      12      13      13      14      12      13      13
      14      12      13      13      14      12      13      13      14      12
      13      13      14      12      13      13      14      12      13      13
      14      12      13      13      14      12      13      13      14      12
      13      13      14      12      13      13      14      12      13      13
      14      12      13      13      14      12      13      13      14      12
      13      13      14      12      13      13      14      12      13      13
      14      12      13      13      14      12      13      13      14      12
      13      13      14      12      13      13      14      12      13      13
      14      12      13      13      14      12      13      13      14      12
      13      13      14      12      13      13      14      12      13      13
      14      12      13      13      14      12      13      13      14      12
      13      13      14      12      13      13      14      12      13      13
      14      12      13      13      14      12      13      13      14      12
      13      13      14      12      13      13      14      12      13      13
      14      12      13      13      14      12      13      13      14      12
      13      13      14      12      13      13      14      12      13      13
      14      12      13      13      14      12      13      13      14      12
      13      13      14      12      13      13      14      12      13      13
      14      12      13      13      14      12      13      13      14      12
      13      13      14      12      13      13      14      12      13      13
      14      12      13      13      14      12      13      13      14      12
      13      13      14      12      13      13      14      12      13      13
      14      12      13      13      14      12      13      13      14      12
      13      13      14      12      13      13      14      12      13      13
      14      12      13      13      14      12      13      13      14      12
      13      13      14      12      13      13      14      12      13      13
      14      12      13      13      14      12      13      13      14      12
      13      13      14      12      13      13      14      12      13      13
      14      12      13      13      14      12      13      13      14      12
      13      13      14      12      13      13      14      12      13      13
      14      12      13      13      14      12      13      13      14      12
      13      13      14      12      13      13      14      12      13      13
      14      12      13      13      14      12      13      13      14      12
      13      13      14      12      13      13      14      12      13      13
      14      12      13      13      14      12      13      13      14      12
      13      13      14      12      13      13      14      12      13      13
      14      12      13      13      14      12      13      13      14      12
      13      13      14      12      13      13      14      12      13      13
      14      12      13      13      14      12      13      13      14      12
      13      13      14      12      13      13      14      12      13      13
      14      12      13      13      14      12      13      13      14      12
      13      13      14      12      13      13      14      12      13      13
      14      12      13      13      14      12      13      13      14      12
      13      13      14      12      13      13      14      12      13      13
      14      12      13      13      14      12      13      13      14      12
      13      13      14      12      13      13      14      12      13      13
      14      12      13      13      14      12      13      13      14      12
      13      13      14      12      13      13      14      12      13      13
      14      12      13      13      14      12      13      13      14      12
      13      13      14      12      13      13      14      12      13      13
      14      12      13      13      14      12      13      13      14      12
      13      13      14      12      13      13      14      12      13      13
      14      12      13      13      14      12      13      13      14      12
      13      13      14      12      13      13      14      12      13      13
      14      12      13      13      14      12      13      13      14      12
      13      13      14      12      13      13      14      12      13      13
      14      12      13      13      14      12      13      13      14      12
      13      13      14      12      13      13      14      12      13      13
      14      12      13      13      14      12      13      13      14      12
      13      13      14      12      13      13      14      12      13      13
      14      12      13      13      14      12      13      13      14      12
      13      13      14      12      13      13      14      12      13      13
      14      12      13      13      14      12      13      13      14      12
      13      13      14      12      13      13      14      12      13      13
      14      12      13      13      14      12      13      13      14      12
      13      13      14      12      13      13      14      12      13      13
      14      12      13      13      14      12      13      13      14      12
      13      13      14      12      13      13      14      12      13      13
      14      12      13      13      14      12      13      13      14      12
      13      13      14      12      13      13      14      12      13      13
      14      12      13      13      14      12      13      13      14      12
      13      13      14      12      13      13      14      12      13      13
      14      12      13      13      14      12      13      13      14      12
      13      13      14      12      13      13      14      12      13      13
      14      12      13      13      14      12      13      13      14      12
      13      13      14      12      13      13      14      12      13      13
      14      12      13      13      14      12      13      13      14      12
      13      13      14      12      13      13      14      12      13      13
      14      12      13      13      14      12      13      13      14      12
      13      13      14      12      13      13      14      12      13      13
      14      12      13      13      14      12      13      13      14      12
      13      13      14      12      13      13      14      12      13      13
      14      12      13      13      14      12      13      13      14      12
      13      13      14      12      13      13      14      12      13      13
      14      12      13      13      14      12      13      13      14      12
      13      13      14      12      13      13      14      12      13      13
      14      12      13      13      14      12      13      13      14      12
      13      13      14      12      13      13      14      12      13      13
      14      12      13      13      14      12      13      13      14      12
      13      13      14      12      13      13      14      12      13      13
      14      12      13      13      14      12      13      13      14      12
      13      13      14      12      13      13      14      12      13      13
      14      12      13      13      14      12      13      13      14      12
      13      13      14      12      13      13      14      12      13      13
      14      12      13      13      14      12      13      13      14      12
      13      13      14      12      13      13      14      12      13      13
      14      12      13      13      14      12      13      13      14      12
      13      13      14      12      13      13      14      12      13      13
      14      12      13      13      14      12      13      13      14      12
      13      13      14      12      13      13      14      12      13      13
      14      12      13      13      14      12      13      13      14      12
      13      13      14      12      13      13      14      12      13      13
      14      12      13      13      14      12      13      13      14      12
      13      13      14      12      13      13      14      12      13      13
      14      12      13      13      14      12      13      13      14      12
      13      13      14      12      13      13      14      12      13      13
      14      12      13      13      14      12      13      13      14      12
      13      13      14      12      13      13      14      12      13      13
      14      12      13      13      14      12      13      13      14      12
      13      13      14      12      13      13      14      12      13      13
      14      12      13      13      14      12      13      13      14      12
      13      13      14      12      13      13      14      12      13      13
      14      12      13      13      14      12      13      13      14      12
      13      13      14      12      13      13      14      12      13      13
      14      12      13      13      14      12      13      13      14      12
      13      13      14      12      13      13      14      12      13      13
      14      12      13      13      14      12      13      13      14      12
      13      13      14      12      13      13      14      12      13      13
      14      12      13      13      14      12      13      13      14      12
      13      13      14      12      13      13      14      12      13      13
      14      12      13      13      14      12      13      13      14      12
      13      13      14      12      13      13      14      12      13      13
      14      12      13      13      14      12      13      13      14      12
      13      13      14      12      13      13      14      12      13      13
      14      12      13      13      14      12      13      13      14      12
      13      13      14      12      13      13      14      12      13      13
      14      12      13      13      14      12      13      13      14      12
      13      13      14      12      13      13      14      12      13      13
      14      12      13      13      14      12      13      13      14      12
      13      13      14      12      13      13      14      12      13      13
      14      12      13      13      14      12      13      13      14      12
      13      13      14      12      13      13      14      12      13      13
      14      12      13      13      14      12      13      13      14      12
      13      13      14      12      13      13      14      12      13      13
      14      12      13      13      14      12      13      13      14      12
      13      13      14      12      13      13      14      12      13      13
      14      12      13      13      14      12      13      13      14      12
      13      13      14      12      13      13      14      12      13      13
      14      12      13      13      14      12      13      13      14      12
      13      13      14      12      13      13      14      12      13      13
      14      12      13      13      14      12      13      13      14      12
      13      13      14      12      13      13      14      12      13      13
      14      12      13      13      14      12      13      13      14      12
      13      13      14      12      13      13      14      12      13      13
      14      12      13      13      14      12      13      13      14      12
      13      13      14      12      13      13      14      12      13      13
      14      12      13      13      14      12      13      13      14      12
      13      13      14      12      13      13      14      12      13      13
      14      12      13      13      14      12      13      13      14      12
      13      13      14      12      13      13      14      12      13      13
      14      12      13      13      14      12      13      13      14      12
      13      13      14      12      13      13      14      12      13      13
      14      12      13      13      14      12      13      13      14      12
      13      13      14      12      13      13      14      12      13      13
      14      12      13      13      14      12      13      13      14      12
      13      13      14      12      13      13      14      12      13      13
      14      12      13      13      14      12      13      13      14      12
      13      13      14      12      13      13      14      12      13      13
      14      12      13      13      14      12      13      13      14      12
      13      13      14      12      13      13      14      12      13      13
      14      12      13      13      14      12      13      13      14      12
      13      13      14      12      13      13      14      12      13      13
      14      12      13      13      14      12      13      13      14      12
      13      13      14      12      13      13      14      12      13      13
      14      12      13      13      14      12      13      13      14      12
      13      13      14      12      13      13      14      12      13      13
      14      12      13      13      14      12      13      13      14      12
      13      13      14      12      13      13      14      12      13      13
      14      12      13      13      14      12      13      13      14      12
      13      13      14      12      13      13      14      12      13      13
      14      12      13      13      14      12      13      13      14      12
      13      13      14      12      13      13      14      12      13      13
      14      12      13      13      14      12      13      13      14      12
      13      13      14      12      13      13      14      12      13      13
      14      12      13      13      14      12      13      13      14      12
      13      13      14      12      13      13      14      12      13      13
      14      12      13      13      14      12      13      13      14      12
      13      13      14      12      13      13      14      12      13      13
      14      12      13      13      14      12      13      13      14      12
      13      13      14      12      13      13      14      12      13      13
      14      12      13      13      14      12      13      13      14      12
      13      13      14      12      13      13      14      12      13      13
      14      12      13      13      14      12      13      13      14      12
      13      13      14      12      13      13      14      12      13      13
      14      12      13      13      14      12      13      13      14      12
      13      13      14      12      13      13      14      12      13      13
      14      12      13      13      14      12      13      13      14      12
      13      13      14      12      13      13      14      12      13      13
      14      12      13      13      14      12      13      13      14      12
      13      13      14      12      13      13      14      12      13      13
      14      12      13      13      14      12      13      13      14      12
      13      13      14      12      13      13      14      12      13      13
      14      12      13      13      14      12      13      13      14      12
      13      13      14      12      13      13      14      12      13      13
      14      12      13      13      14      12      13      13      14      12
      13      13      14      12      13      13      14      12      13      13
      14      12      13      13      14      12      13      13      14      12
      13      13      14      12      13      13      14      12      13      13
      14      12      13      13      14      12      13      13      14      12
      13      13      14      12      13      13      14      12      13      13
      14      12      13      13      14      12      13      13      14      12
      13      13      14      12      13      13      14      12      13      13
      14      12      13      13      14      12      13      13      14      12
      13      13      14      12      13      13      14      12      13      13
      14      12      13      13      14      12      13      13      14      12
      13      13      14      12      13      13      14      12      13      13
      14      12      13      13      14      12      13      13      14      12
      13      13      14      12      13      13      14      12      13      13
      14      12      13      13      14      12      13      13      14      12
      13      13      14      12      13      13      14      12      13      13
      14      12      13      13      14      12      13      13      14      12
      13      13      14      12      13      13      14      12      13      13
      14      12      13      13      14      12      13      13      14      12
      13      13      14      12      13      13      14      12      13      13
      14      12      13      13      14      12      13      13      14      12
      13      13      14      12      13      13      14      12      13      13
      14      12      13      13      14      12      13      13      14      12
      13      13      14      12      13      13      14      12      13      13
      14      12      13      13      14      12      13      13      14      12
      13      13      14      12      13      13      14      12      13      13
      14      12      13      13      14      12      13      13      14      12
      13      13      14      12      13      13      14      12      13      13
      14      12      13      13      14      12      13      13      14      12
      13      13      14      12      13      13      14      12      13      13
      14      12      13      13      14      12      13      13      14      12
      13      13      14      12      13      13      14      12      13      13
      14      12      13      13      14      12      13      13      14      12
      13      13      14      12      13      13      14      12      13      13
      14      12      13      13      14      12      13      13      14      12
      13      13      14      12      13      13      14      12      13      13
      14      12      13      13      14      12      13      13      14      12
      13      13      14      12      13      13      14      12      13      13
      14      12      13      13      14      12      13      13      14      12
      13      13      14      12      13      13      14      12      13      13
      14      12      13      13      14      12      13      13      14      12
      13      13      14      12      13      13      14      12      13      13
      14      12      13      13      14      12      13      13      14      12
      13      13      14      12      13      13      14      12      13      13
      14      12      13      13      14      12      13      13      14      12
      13      13      14      12      13      13      14      12      13      13
      14      12      13      13      14      12      13      13      14      12
      13      13      14      12      13      13      14      12      13      13
      14      12      13      13      14      12      13      13      14      12
      13      13      14      12      13      13      14      12      13      13
      14      12      13      13      14      12      13      13      14      12
      13      13      14      12      13      13      14      12      13      13
      14      12      13      13      14      12      13      13      14      12
      13      13      14      12      13      13      14      12      13      13
      14      12      13      13      14      12      13      13      14      12
      13      13      14      12      13      13      14      12      13      13
      14      12      13      13      14      12      13      13      14      12
      13      13      14      12      13      13      14      12      13      13
      14      12      13      13      14      12      13      13      14      12
      13      13      14      12      13      13      14      12      13      13
      14      12      13      13      14      12      13      13      14      12
      13      13      14      12      13      13      14      12      13      13
      14      12      13      13      14      12      13      13      14      12
      13      13      14      12      13      13      14      12      13      13
      14      12      13      13      14      12      13      13      14      12
      13      13      14      12      13      13      14      12      13      13
      14      12      13      13      14      12      13      13      14      12
      13      13      14      12      13      13      14      12      13      13
      14      12      13      13      14      12      13      13      14      12
      13      13      14      12      13      13      14      12      13      13
      14      12      13      13      14      12      13      13      14      12
      13      13      14      12      13      13      14      12      13      13
      14      12      13      13      14      12      13      13      14      12
      13      13      14      12      13      13      14      12      13      13
      14      12      13      13      14      12      13      13      14      12
      13      13      14      12      13      13      14      12      13      13
      14      12      13      13      14      12      13      13      14      12
      13      13      14      12      13      13      14      12      13      13
      14      12      13      13      14      12      13      13      14      12
      13      13      14      12      13      13      14      12      13      13
      14      12      13      13      14      12      13      13      14      12
      13      13      14      12      13      13      14      12      13      13
      14      12      13      13      14      12      13      13      14      12
      13      13      14      12      13      13      14      12      13      13
      14      12      13      13      14      12      13      13      14      12
      13      13      14      12      13      13      14      12      13      13
      14      12      13      13      14      12      13      13      14      12
      13      13      14      12      13      13      14      12      13      13
      14      12      13      13      14      12      13      13      14      12
      13      13      14      12      13      13      14      12      13      13
      14      12      13      13      14      12      13      13      14      12
      13      13      14      12      13      13      14      12      13      13
      14      12      13      13      14      12      13      13      14      12
      13      13      14      12      13      13      14      12      13      13
      14      12      13      13      14      12      13      13      14      12
      13      13      14      12      13      13      14      12      13      13
      14      12      13      13      14      12      13      13      14      12
      13      13      14      12      13      13      14      12      13      13
      14      12      13      13      14      12      13      13      14      12
      13      13      14      12      13      13      14      12      13      13
      14      12      13      13      14      12      13      13      14      12
      13      13      14      12      13      13      14      12      13      13
      14      12      13      13      14      12      13      13      14      12
      13      13      14      12      13      13      14      12      13      13
      14      12      13      13      14      12      13      13      14      12
      13      13      14      12      13      13      14      12      13      13
      14      12      13      13      14      12      13      13      14      12
      13      13      14      12      13      13      14      12      13      13
      14      12      13      13      14      12      13      13      14      12
      13      13      14      12      13      13      14      12      13      13
      14      12      13      13      14      12      13      13      14      12
      13      13      14      12      13      13      14      12      13      13
      14      12      13      13      14      12      13      13      14      12
      13      13      14      12      13      13      14      12      13      13
      14      12      13      13      14      12      13      13      14      12
      13      13      14      12      13      13      14      12      13      13
      14      12      13      13      14      12      13      13      14      12
      13      13      14      12      13      13      14      12      13      13
      14      12      13      13      14      12      13      13      14      12
      13      13      14      12      13      13      14      12      13      13
      14      12      13      13      14      12      13      13      14      12
      13      13      14      12      13      13      14      12      13      13
      14      12      13      13      14      12      13      13      14      12
      13      13      14      12      13      13      14      12      13      13
      14      12      13      13      14      12      13      13      14      12
      13      13      14      12      13      13      14      12      13      13
      14      12      13      13      14      12      13      13      14      12
      13      13      14      12      13      13      14      12      13      13
      14      12      13      13      14      12      13      13      14      12
      13      13      14      12      13      13      14      12      13      13
      14      12      13      13      14      12      13      13      14      12
      13      13      14      12      13      13      14      12      13      13
      14      12      13      13      14      12      13      13      14      12
      13      13      14      12      13      13      14      12      13      13
      14      12      13      13      14      12      13      13      14      12
      13      13      14      12      13      13      14      12      13      13
      14      12      13      13      14      12      13      13      14      12
      13      13      14      12      13      13      14      12      13      13
      14      12      13      13      14      12      13      13      14      12
      13      13      14      12      13      13      14      12      13      13
      14      12      13      13      14      12      13      13      14      12
      13      13      14      12      13      13      14      12      13      13
      14      12      13      13      14      12      13      13      14      12
      13      13      14      12      13      13      14      12      13      13
      14      12      13      13      14      12      13      13      14      12
      13      13      14      12      13      13      14      12      13      13
      14      12      13      13      14      12      13      13      14      12
      13      13      14      12      13      13      14      12      13      13
      14      12      13      13      14      12      13      13      14      12
      13      13      14      12      13      13      14      12      13      13
      14      12      13      13      14      12      13      13      14      12
      13      13      14      12      13      13      14      12      13      13
      14      12      13      13      14      12      13      13      14      12
      13      13      14      12      13      13      14      12      13      13
      14      12      13      13      14      12      13      13      14      12
      13      13      14      12      13      13      14      12      13      13
      14      12      13      13      14      12      13      13      14      12
      13      13      14      12      13      13      14      12      13      13
      14      12      13      13      14      12      13      13      14      12
      13      13      14      12      13      13      14      12      13      13
      14      12      13      13      14      12      13      13      14      12
      13      13      14      12      13      13      14      12      13      13
      14      12      13      13      14      12      13      13      14      12
      13      13      14      12      13      13      14      12      13      13
      14      12      13      13      14      12      13      13      14      12
      13      13      14      12      13      13      14      12      13      13
      14      12      13      13      14      12      13      13      14      12
      13      13      14      12      13      13      14      12      13      13
      14      12      13      13      14      12      13      13      14      12
      13      13      14      12      13      13      14      12      13      13
      14      12      13      13      14      12      13      13      14      12
      13      13      14      12      13      13      14      12      13      13
      14      12      13      13      14      12      13      13      14      12
      13      13      14      12      13      13      14      12      13      13
      14      12      13      13      14      12      13      13      14      12
      13      13      14      12      13      13      14      12      13      13
      14      12      13      13      14      12      13      13      14      12
      13      13      14      12      13      13      14      12      13      13
      14      12      13      13      14      12      13      13      14      12
      13      13      14      12      13      13      14      12      13      13
      14      12      13      13      14      12      13      13      14      12
      13      13      14      12      13      13      14      12      13      13
      14      12      13      13      14      12      13      13      14      12
      13      13      14      12      13      13      14      12      13      13
      14      12      13      13      14      12      13      13      14      12
      13      13      14      12      13      13      14      12      13      13
      14      12      13      13      14      12      13      13      14      12
      13      13      14      12      13      13      14      12      13      13
      14      12      13      13      14      12      13      13      14      12
      13      13      14      12      13      13      14      12      13      13
      14      12      13      13      14      12      13      13      14      12
      13      13      14      12      13      13      14      12      13      13
      14      12      13      13      14      12      13      13      14      12
      13      13      14      12      13      13      14      12      13      13
      14      12      13      13      14      12      13      13      14      12
      13      13      14      12      13      13      14      12      13      13
      14      12      13      13      14      12      13      13      14      12
      13      13      14      12      13      13      14      12      13      13
      14      12      13      13      14      12      13      13      14      12
      13      13      14      12      13      13      14      12      13      13
      14      12      13      13      14      12      13      13      14      12
      13      13      14      12      13      13      14      12      13      13
      14      12      13      13      14      12      13      13      14      12
      13      13      14      12      13      13      14      12      13      13
      14      12      13      13      14      12      13      13      14      12
      13      13      14      12      13      13      14      12      13      13
      14      12      13      13      14      12      13      13      14      12
      13      13      14      12      13      13      14      12      13      13
      14      12      13      13      14      12      13      13      14      12
      13      13      14      12      13      13      14      12      13      13
      14      12      13      13      14      12      13      13      14      12
      13      13      14      12      13      13      14      12      13      13
      14      12      13      13      14      12      13      13      14      12
      13      13      14      12      13      13      14      12      13      13
      14      12      13      13      14      12      13      13      14      12
      13      13      14      12      13      13      14      12      13      13
      14      12      13      13      14      12      13      13      14      12
      13      13      14      12      13      13      14      12      13      13
      14      12      13      13      14      12      13      13      14      12
      13      13      14      12      13      13      14      12      13      13
      14      12      13      13      14      12      13      13      14      12
      13      13      14      12      13      13      14      12      13      13
      14      12      13      13      14      12      13      13      14      12
      13      13      14      12      13      13      14      12      13      13
      14      12      13      13      14      12      13      13      14      12
      13      13      14      12      13      13      14      12      13      13
      14      12      13      13      14      12      13      13      14      12
      13      13      14      12      13      13      14      12      13      13
      14      12      13      13      14      12      13      13      14      12
      13      13      14      12      13      13      14      12      13      13
      14      12      13      13      14      12      13      13      14      12
      13      13      14      12      13      13      14      12      13      13
      14      12      13      13      14      12      13      13      14      12
      13      13      14      12      13      13      14      12      13      13
      14      12      13      13      14      12      13      13      14      12
      13      13      14      12      13      13      14      12      13      13
      14      12      13      13      14      12      13      13      14      12
      13      13      14      12      13      13      14      12      13      13
      14      12      13      13      14      12      13      13      14      12
      13      13      14      12      13      13      14      12      13      13
      14      12      13      13      14      12      13      13      14      12
      13      13      14      12      13      13      14      12      13      13
      14      12      13      13      14      12      13      13      14      12
      13      13      14      12      13      13      14      12      13      13
      14      12      13      13      14      12      13      13      14      12
      13      13      14      12      13      13      14      12      13      13
      14      12      13      13      14      12      13      13      14      12
      13      13      14      12      13      13      14      12      13      13
      14      12      13      13      14      12      13      13      14      12
      13      13      14      12      13      13      14      12      13      13
      14      12      13      13      14      12      13      13      14      12
      13      13      14      12      13      13      14      12      13      13
      14      12      13      13      14      12      13      13      14      12
      13      13      14      12      13      13      14      12      13      13
      14      12      13      13      14      12      13      13      14      12
      13      13      14      12      13      13      14      12      13      13
      14      12      13      13      14      12      13      13      14      12
      13      13      14      12      13      13      14      12      13      13
      14      12      13      13      14      12      13      13      14      12
      13      13      14      12      13      13      14      12      13      13
      14      12      13      13      14      12      13      13      14      12
      13      13      14      12      13      13      14      12      13      13
      14      12      13      13      14      12      13      13      14      12
      13      13      14      12      13      13      14      12      13      13
      14      12      13      13      14      12      13      13      14      12
      13      13      14      12      13      13      14      12      13      13
      14      12      13      13      14      12      13      13      14      12
      13      13      14      12      13      13      14      12      13      13
      14      12      13      13      14      12      13      13      14      12
      13      13      14      12      13      13      14      12      13      13
      14      12      13      13      14      12      13      13      14      12
      13      13      14      12      13      13      14      12      13      13
      14      12      13      13      14      12      13      13      14      12
      13      13      14      12      13      13      14      12      13      13
      14      12      13      13      14      12      13      13      14      12
      13      13      14      12      13      13      14      12      13      13
      14      12      13      13      14      12      13      13      14      12
      13      13      14      12      13      13      14      12      13      13
      14      12      13      13      14      12      13      13      14      12
      13      13      14      12      13      13      14      12      13      13
      14      12      13      13      14      12      13      13      14      12
      13      13      14      12      13      13      14      12      13      13
      14      12      13      13      14      12      13      13      14      12
      13      13      14      12      13      13      14      12      13      13
      14      12      13      13      14      12      13      13      14      12
      13      13      14      12      13      13      14      12      13      13
      14      12      13      13      14      12      13      13      14      12
      13      13      14      12      13      13      14      12      13      13
      14      12      13      13      14      12      13      13      14      12
      13      13      14      12      13      13      14      12      13      13
      14      12      13      13      14      12      13      13      14      12
      13      13      14      12      13      13      14      12      13      13
      14      12      13      13      14      12      13      13      14      12
      13      13      14      12      13      13      14      12      13      13
      14      12      13      13      14      12      13      13      14      12
      13      13      14      12      13      13      14      12      13      13
      14      12      13      13      14      12      13      13      14      12
      13      13      14      12      13      13      14      12      13      13
      14      12      13      13      14      12      13      13      14      12
      13      13      14      12      13      13      14      12      13      13
      14      12      13      13      14      12      13      13      14      12
      13      13      14      12      13      13      14      12      13      13
      14      12      13      13      14      12      13      13      14      12
      13      13      14      12      13      13      14      12      13      13
      14      12      13      13      14      12      13      13      14      12
      13      13      14      12      13      13      14      12      13      13
      14      12      13      13      14      12      13      13      14      12
      13      13      14      12      13      13      14      12      13      13
      14      12      13      13      14      12      13      13      14      12
      13      13      14      12      13      13      14      12      13      13
      14      12      13      13      14      12      13      13      14      12
      13      13      14      12      13      13      14      12      13      13
      14      12      13      13      14      12      13      13      14      12
      13      13      14      12      13      13      14      12      13      13
      14      12      13      13      14      12      13      13      14      12
      13      13      14      12      13      13      14      12      13      13
      14      12      13      13      14      12      13      13      14      12
      13      13      14      12      13      13      14      12      13      13
      14      12      13      13      14      12      13      13      14      12
      13      13      14      12      13      13      14      12      13      13
      14      12      13      13      14      12      13      13      14      12
      13      13      14      12      13      13      14      12      13      13
      14      12      13      13      14      12      13      13      14      12
      13      13      14      12      13      13      14      12      13      13
      14      12      13      13      14      12      13      13      14      12
      13      13      14      12      13      13      14      12      13      13
      14      12      13      13      14      12      13      13      14      12
      13      13      14      12      13      13      14      12      13      13
      14      12      13      13      14      12      13      13      14      12
      13      13      14      12      13      13      14      12      13      13
      14      12      13      13      14      12      13      13      14      12
      13      13      14      12      13      13      14      12      13      13
      14      12      13      13      14      12      13      13      14      12
      13      13      14      12      13      13      14      12      13      13
      14      12      13      13      14      12      13      13      14      12
      13      13      14      12      13      13      14      12      13      13
      14      12      13      13      14      12      13      13      14      12
      13      13      14      12      13      13      14      12      13      13
      14      12      13      13      14      12      13      13      14      12
      13      13      14      12      13      13      14      12      13      13
      14      12      13      13      14      12      13      13      14      12
      13      13      14      12      13      13      14      12      13      13
      14      12      13      13      14      12      13      13      14      12
      13      13      14      12      13      13      14      12      13      13
      14      12      13      13      14      12      13      13      14      12
      13      13      14      12      13      13      14      12      13      13
      14      12      13      13      14      12      13      13      14      12
      13      13      14      12      13      13      14      12      13      13
      14      12      13      13      14      12      13      13      14      12
      13      13      14      12      13      13      14      12      13      13
      14      12      13      13      14      12      13      13      14      12
      13      13      14      12      13      13      14      12      13      13
      14      12      13      13      14      12      13      13      14      12
      13      13      14      12      13      13      14      12      13      13
      14      12      13      13      14      12      13      13      14      12
      13      13      14      12      13      13      14      12      13      13
      14      12      13      13      14      12      13      13      14      12
      13      13      14      12      13      13      14      12      13      13
      14      12      13      13      14      12      13      13      14      12
      13      13      14      12      13      13      14      12      13      13
      14      12      13      13      14      12      13      13      14      12
      13      13      14      12      13      13      14      12      13      13
      14      12      13      13      14      12      13      13      14      12
      13      13      14      12      13      13      14      12      13      13
      14      12      13      13      14      12      13      13      14      12
      13      13      14      12      13      13      14      12      13      13
      14      12      13      13      14      12      13      13      14      12
      13      13      14      12      13      13      14      12      13      13
      14      12      13      13      14      12      13      13      14      12
      13      13      14      12      13      13      14      12      13      13
      14      12      13      13      14      12      13      13      14      12
      13      13      14      12      13      13      14      12      13      13
      14      12      13      13      14      12      13      13      14      12
      13      13      14      12      13      13      14      12      13      13
      14      12      13      13      14      12      13      13      14      12
      13      13      14      12      13      13      14      12      13      13
      14      12      13      13      14      12      13      13      14      12
      13      13      14      12      13      13      14      12      13      13
      14      12      13      13      14      12      13      13      14      12
      13      13      14      12      13      13      14      12      13      13
      14      12      13      13      14      12      13      13      14      12
      13      13      14      12      13      13      14      12      13      13
      14      12      13      13      14      12      13      13      14      12
      13      13      14      12      13      13      14      12      13      13
      14      12      13      13      14      12      13      13      14      12
      13      13      14      12      13      13      14      12      13      13
      14      12      13      13      14      12      13      13      14      12
      13      13      14      12      13      13      14      12      13      13
      14      12      13      13      14      12      13      13      14      12
      13      13      14      12      13      13      14      12      13      13
      14      12      13      13      14      12      13      13      14      12
      13      13      14      12      13      13      14      12      13      13
      14      12      13      13      14      12      13      13      14      12
      13      13      14      12      13      13      14      12      13      13
      14      12      13      13      14      12      13      13      14      12
      13      13      14      12      13      13      14      12      13      13
      14      12      13      13      14      12      13      13      14      12
      13      13      14      12      13      13      14      12      13      13
      14      12      13      13      14      12      13      13      14      12
      13      13      14      12      13      13      14      12      13      13
      14      12      13      13      14      12      13      13      14      12
      13      13      14      12      13      13      14      12      13      13
      14      12      13      13      14      12      13      13      14      12
      13      13      14      12      13      13      14      12      13      13
      14      12      13      13      14      12      13      13      14      12
      13      13      14      12      13      13      14      12      13      13
      14      12      13      13      14      12      13      13      14      12
      13      13      14      12      13      13      14      12      13      13
      14      12      13      13      14      12      13      13      14      12
      13      13      14      12      13      13      14      12      13      13
      14      12      13      13      14      12      13      13      14      12
      13      13      14      12      13      13      14      12      13      13
      14      12      13      13      14      12      13      13      14      12
      13      13      14      12      13      13      14      12      13      13
      14      12      13      13      14      12      13      13      14      12
      13      13      14      12      13      13      14      12      13      13
      14      12      13      13      14      12      13      13      14      12
      13      13      14      12      13      13      14      12      13      13
      14      12      13      13      14      12      13      13      14      12
      13      13      14      12      13      13      14      12      13      13
      14      12      13      13      14      12      13      13      14      12
      13      13      14      12      13      13      14      12      13      13
      14      12      13      13      14      12      13      13      14      12
      13      13      14      12      13      13      14      12      13      13
      14      12      13      13      14      12      13      13      14      12
      13      13      14      12      13      13      14      12      13      13
      14      12      13      13      14      12      13      13      14      12
      13      13      14      12      13      13      14      12      13      13
      14      12      13      13      14      12      13      13      14      12
      13      13      14      12      13      13      14      12      13      13
      14      12      13      13      14      12      13      13      14      12
      13      13      14      12      13      13      14      12      13      13
      14      12      13      13      14      12      13      13      14      12
      13      13      14      12      13      13      14      12      13      13
      14      12      13      13      14      12      13      13      14      12
      13      13      14      12      13      13      14      12      13      13
      14      12      13      13      14      12      13      13      14      12
      13      13      14      12      13      13      14      12      13      13
      14      12      13      13      14      12      13      13      14      12
      13      13      14      12      13      13      14      12      13      13
      14      12      13      13      14      12      13      13      14      12
      13      13      14      12      13      13      14      12      13      13
      14      12      13      13      14      12      13      13      14      12
      13      13      14      12      13      13      14      12      13      13
      14      12      13      13      14      12      13      13      14      12
      13      13      14      12      13      13      14      12      13      13
      14      12      13      13      14      12      13      13      14      12
      13      13      14      12      13      13      14      12      13      13
      14      12      13      13      14      12      13      13      14      12
      13      13      14      12      13      13      14      12      13      13
      14      12      13      13      14      12      13      13      14      12
      13      13      14      12      13      13      14      12      13      13
      14      12      13      13      14      12      13      13      14      12
      13      13      14      12      13      13      14      12      13      13
      14      12      13      13      14      12      13      13      14      12
      13      13      14      12      13      13      14      12      13      13
      14      12      13      13      14      12      13      13      14      12
      13      13      14      12      13      13      14      12      13      13
      14      12      13      13      14      12      13      13      14      12
      13      13      14      12      13      13      14      12      13      13
      14      12      13      13      14      12      13      13      14      12
      13      13      14      12      13      13      14      12      13      13
      14      12      13      13      14      12      13      13      14      12
      13      13      14      12      13      13      14      12      13      13
      14      12      13      13      14      12      13      13      14      12
      13      13      14      12      13      13      14      12      13      13
      14      12      13      13      14      12      13      13      14      12
      13      13      14      12      13      13      14      12      13      13
      14      12      13      13      14      12      13      13      14      12
      13      13      14      12      13      13      14      12      13      13
      14      12      13      13      14      12      13      13      14      12
      13      13      14      12      13      13      14      12      13      13
      14      12      13      13      14      12      13      13      14      12
      13      13      14      12      13      13      14      12      13      13
      14      12      13      13      14      12      13      13      14      12
      13      13      14      12      13      13      14      12      13      13
      14      12      13      13      14      12      13      13      14      12
      13      13      14      12      13      13      14      12      13      13
      14      12      13      13      14      12      13      13      14      12
      13      13      14      12      13      13      14      12      13      13
      14      12      13      13      14      12      13      13      14      12
      13      13      14      12      13      13      14      12      13      13
      14      12      13      13      14      12      13      13      14      12
      13      13      14      12      13      13      14      12      13      13
      14      12      13      13      14      12      13      13      14      12
      13      13      14      12      13      13      14      12      13      13
      14      12      13      13      14      12      13      13      14      12
      13      13      14      12      13      13      14      12      13      13
      14      12      13      13      14      12      13      13      14      12
      13      13      14      12      13      13      14      12      13      13
      14      12      13      13      14      12      13      13      14      12
      13      13      14      12      13      13      14      12      13      13
      14      12      13      13      14      12      13      13      14      12
      13      13      14      12      13      13      14      12      13      13
      14      12      13      13      14      12      13      13      14      12
      13      13      14      12      13      13      14      12      13      13
      14      12      13      13      14      12      13      13      14      12
      13      13      14      12      13      13      14      12      13      13
      14      12      13      13      14      12      13      13      14      12
      13      13      14      12      13      13      14      12      13      13
      14      12      13      13      14      12      13      13      14      12
      13      13      14      12      13      13      14      12      13      13
      14      12      13      13      14      12      13      13      14      12
      13      13      14      12      13      13      14      12      13      13
      14      12      13      13      14      12      13      13      14      12
      13      13      14      12      13      13      14      12      13      13
      14      12      13      13      14      12      13      13      14      12
      13      13      14      12      13      13      14      12      13      13
      14      12      13      13      14      12      13      13      14      12
      13      13      14      12      13      13      14      12      13      13
      14      12      13      13      14      12      13      13      14      12
      13      13      14      12      13      13      14      12      13      13
      14      12      13      13      14      12      13      13      14      12
      13      13      14      12      13      13      14      12      13      13
      14      12      13      13      14      12      13      13      14      12
      13      13      14      12      13      13      14      12      13      13
      14      12      13      13      14      12      13      13      14      12
      13      13      14      12      13      13      14      12      13      13
      14      12      13      13      14      12      13      13      14      12
      13      13      14      12      13      13      14      12      13      13
      14      12      13      13      14      12      13      13      14      12
      13      13      14      12      13      13      14      12      13      13
      14      12      13      13      14      12      13      13      14      12
      13      13      14      12      13      13      14      12      13      13
      14      12      13      13      14      12      13      13      14      12
      13      13      14      12      13      13      14      12      13      13
      14      12      13      13      14      12      13      13      14      12
      13      13      14      12      13      13      14      12      13      13
      14      12      13      13      14      12      13      13      14      12
      13      13      14      12      13      13      14      12      13      13
      14      12      13      13      14      12      13      13      14      12
      13      13      14      12      13      13      14      12      13      13
      14      12      13      13      14      12      13      13      14      12
      13      13      14      12      13      13      14      12      13      13
      14      12      13      13      14      12      13      13      14      12
      13      13      14      12      13      13      14      12      13      13
      14      12      13      13      14      12      13      13      14      12
      13      13      14      12      13      13      14      12      13      13
      14      12      13      13      14      12      13      13      14      12
      13      13      14      12      13      13      14      12      13      13
      14      12      13      13      14      12      13      13      14      12
      13      13      14      12      13      13      14      12      13      13
      14      12      13      13      14      12      13      13      14      12
      13      13      14      12      13      13      14      12      13      13
      14      12      13      13      14      12      13      13      14      12
      13      13      14      12      13      13      14      12      13      13
      14      12      13      13      14      12      13      13      14      12
      13      13      14      12      13      13      14      12      13      13
      14      12      13      13      14      12      13      13      14      12
      13      13      14      12      13      13      14      12      13      13
      14      12      13      13      14      12      13      13      14      12
      13      13      14      12      13      13      14      12      13      13
      14      12      13      13      14      12      13      13      14      12
      13      13      14      12      13      13      14      12      13      13
      14      12      13      13      14      12      13      13      14      12
      13      13      14      12      13      13      14      12      13      13
      14      12      13      13      14      12      13      13      14      12
      13      13      14      12      13      13      14      12      13      13
      14      12      13      13      14      12      13      13      14      12
      13      13      14      12      13      13      14      12      13      13
      14      12      13      13      14      12      13      13      14      12
      13      13      14      12      13      13      14      12      13      13
      14      12      13      13      14      12      13      13      14      12
      13      13      14      12      13      13      14      12      13      13
      14      12      13      13      14      12      13      13      14      12
      13      13      14      12      13      13      14      12      13      13
      14      12      13      13      14      12      13      13      14      12
      13      13      14      12      13      13      14      12      13      13
      14      12      13      13      14      12      13      13      14      12
      13      13      14      12      13      13      14      12      13      13
      14      12      13      13      14      12      13      13      14      12
      13      13      14      12      13      13      14      12      13      13
      14      12      13      13      14      12      13      13      14      12
      13      13      14      12      13      13      14      12      13      13
      14      12      13      13      14      12      13      13      14      12
      13      13      14      12      13      13      14      12      13      13
      14      12      13      13      14      12      13      13      14      12
      13      13      14      12      13      13      14      12      13      13
      14      12      13      13      14      12      13      13      14      12
      13      13      14      12      13      13      14      12      13      13
      14      12      13      13      14      12      13      13      14      12
      13      13      14      12      13      13      14      12      13      13
      14      12      13      13      14      12      13      13      14      12
      13      13      14      12      13      13      14      12      13      13
      14      12      13      13      14      12      13      13      14      12
      13      13      14      12      13      13      14      12      13      13
      14      12      13      13      14      12      13      13      14      12
      13      13      14      12      13      13      14      12      13      13
      14      12      13      13      14      12      13      13      14      12
      13      13      14      12      13      13      14      12      13      13
      14      12      13      13      14      12      13      13      14      12
      13      13      14      12      13      13      14      12      13      13
      14      12      13      13      14      12      13      13      14      12
      13      13      14      12      13      13      14      12      13      13
      14      12      13      13      14      12      13      13      14      12
      13      13      14      12      13      13      14      12      13      13
      14      12      13      13      14      12      13      13      14      12
      13      13      14      12      13      13      14      12      13      13
      14      12      13      13      14      12      13      13      14      12
      13      13      14      12      13      13      14      12      13      13
      14      12      13      13      14      12      13      13      14      12
      13      13      14      12      13      13      14      12      13      13
      14      12      13      13      14      12      13      13      14      12
      13      13      14      12      13      13      14      12      13      13
      14      12      13      13      14      12      13      13      14      12
      13      13      14      12      13      13      14      12      13      13
      14      12      13      13      14      12      13      13      14      12
      13      13      14      12      13      13      14      12      13      13
      14      12      13      13      14      12      13      13      14      12
      13      13      14      12      13      13      14      12      13      13
      14      12      13      13      14      12      13      13      14      12
      13      13      14      12      13      13      14      12      13      13
      14      12      13      13      14      12      13      13      14      12
      13      13      14      12      13      13      14      12      13      13
      14      12      13      13      14      12      13      13      14      12
      13      13      14      12      13      13      14      12      13      13
      14      12      13      13      14      12      13      13      14      12
      13      13      14      12      13      13      14      12      13      13
      14      12      13      13      14      12      13      13      14      12
      13      13      14      12      13      13      14      12      13      13
      14      12      13      13      14      12      13      13      14      12
      13      13      14      12      13      13      14      12      13      13
      14      12      13      13      14      12      13      13      14      12
      13      13      14      12      13      13      14      12      13      13
      14      12      13      13      14      12      13      13      14      12
      13      13      14      12      13      13      14      12      13      13
      14      12      13      13      14      12      13      13      14      12
      13      13      14      12      13      13      14      12      13      13
      14      12      13      13      14      12      13      13      14      12
      13      13      14      12      13      13      14      12      13      13
      14      12      13      13      14      12      13      13      14      12
      13      13      14      12      13      13      14      12      13      13
      14      12      13      13      14      12      13      13      14      12
      13      13      14      12      13      13      14      12      13      13
      14      12      13      13      14      12      13      13      14      12
      13      13      14      12      13      13      14      12      13      13
      14      12      13      13      14      12      13      13      14      12
      13      13      14      12      13      13      14      12      13      13
      14      12      13      13      14      12      13      13      14      12
      13      13      14      12      13      13      14      12      13      13
      14      12      13      13      14      12      13      13      14      12
      13      13      14      12      13      13      14      12      13      13
      14      12      13      13      14      12      13      13      14      12
      13      13      14      12      13      13      14      12      13      13
      14      12      13      13      14      12      13      13      14      12
      13      13      14      12      13      13      14      12      13      13
      14      12      13      13      14      12      13      13      14      12
      13      13      14      12      13      13      14      12      13      13
      14      12      13      13      14      12      13      13      14      12
      13      13      14      12      13      13      14      12      13      13
      14      12      13      13      14      12      13      13      14      12
      13      13      14      12      13      13      14      12      13      13
      14      12      13      13      14      12      13      13      14      12
      13      13      14      12      13      13      14      12      13      13
      14      12      13      13      14      12      13      13      14      12
      13      13      14      12      13      13      14      12      13      13
      14      12      13      13      14      12      13      13      14      12
      13      13      14      12      13      13      14      12      13      13
      14      12      13      13      14      12      13      13      14      12
      13      13      14      12      13      13      14      12      13      13
      14      12      13      13      14      12      13      13      14      12
      13      13      14      12      13      13      14      12      13      13
      14      12      13      13      14
%FLAG NUMBER_EXCLUDED_ATOMS                                                     
%FORMAT(10I8)                                                                   
       1       1       1       1       1       1       1       1       1       1
       7      10       9      10      10       7       5       4       8       6
       6       4       3       2       1       1       2       1       1       1
       1       3       2       1       1       3       2       1       1       3
       2       1       1       3       2       1       1       3       2       1
       1       3       2       1       1       3       2       1       1       3
       2       1       1       3       2       1       1       3       2       1
       1       3       2       1       1       3       2       1       1       3
       2       1       1       3       2       1       1       3       2       1
       1       3       2       1       1       3       2       1       1       3
       2       1       1       3       2       1       1       3       2       1
       1       3       2       1       1       3       2       1       1       3
       2       1       1       3       2       1       1       3       2       1
       1       3       2       1       1       3       2       1       1       3
       2       1       1       3       2       1       1       3       2       1
       1       3       2       1       1       3       2       1       1       3
       2       1       1       3       2       1       1       3       2       1
       1       3       2       1       1       3       2       1       1       3
       2       1       1       3       2       1       1       3       2       1
       1       3       2       1       1       3       2       1       1       3
       2       1       1       3       2       1       1       3       2       1
       1       3       2       1       1       3       2       1       1       3
       2       1       1       3       2       1       1       3       2       1
       1       3       2       1       1       3       2       1       1       3
       2       1       1       3       2       1       1       3       2       1
       1       3       2       1       1       3       2       1       1       3
       2       1       1       3       2       1       1       3       2       1
       1       3       2       1       1       3       2       1       1       3
       2       1       1       3       2       1       1       3       2       1
       1       3       2       1       1       3       2       1       1       3
       2       1       1       3       2       1       1       3       2       1
       1       3       2       1       1       3       2       1       1       3
       2       1       1       3       2       1       1       3       2       1
       1       3       2       1       1       3       2       1       1       3
       2       1       1       3       2       1       1       3       2       1
       1       3       2       1       1       3       2       1       1       3
       2       1       1       3       2       1       1       3       2       1
       1       3       2       1       1       3       2       1       1       3
       2       1       1       3       2       1       1       3       2       1
       1       3       2       1       1       3       2       1       1       3
       2       1       1       3       2       1       1       3       2       1
       1       3       2       1       1       3       2       1       1       3
       2       1       1       3       2       1       1       3       2       1
       1       3       2       1       1       3       2       1       1       3
       2       1       1       3       2       1       1       3       2       1
       1       3       2       1       1       3       2       1       1       3
       2       1       1       3       2       1       1       3       2       1
       1       3       2       1       1       3       2       1       1       3
       2       1       1       3       2       1       1       3       2       1
       1       3       2       1       1       3       2       1       1       3
       2       1       1       3       2       1       1       3       2       1
       1       3       2       1       1       3       2       1       1       3
       2       1       1       3       2       1       1       3       2       1
       1       3       2       1       1       3       2       1       1       3
       2       1       1       3       2       1       1       3       2       1
       1       3       2       1       1       3       2       1       1       3
       2       1       1       3       2       1       1       3       2       1
       1       3       2       1       1       3       2       1       1       3
       2       1       1       3       2       1       1       3       2       1
       1       3       2       1       1       3       2       1       1       3
       2       1       1       3       2       1       1       3       2       1
       1       3       2       1       1       3       2       1       1       3
       2       1       1       3       2       1       1       3       2       1
       1       3       2       1       1       3       2       1       1       3
       2       1       1       3       2       1       1       3       2       1
       1       3       2       1       1       3       2       1       1       3
       2       1       1       3       2       1       1       3       2       1
       1       3       2       1       1       3       2       1       1       3
       2       1       1       3       2       1       1       3       2       1
       1       3       2       1       1       3       2       1       1       3
       2       1       1       3       2       1       1       3       2       1
       1       3       2       1       1       3       2       1       1       3
       2       1       1       3       2       1       1       3       2       1
       1       3       2       1       1       3       2       1       1       3
       2       1       1       3       2       1       1       3       2       1
       1       3       2       1       1       3       2       1       1       3
       2       1       1       3       2       1       1       3       2       1
       1       3       2       1       1       3       2       1       1       3
       2       1       1       3       2       1       1       3       2       1
       1       3       2       1       1       3       2       1       1       3
       2       1       1       3       2       1       1       3       2       1
       1       3       2       1       1       3       2       1       1       3
       2       1       1       3       2       1       1       3       2       1
       1       3       2       1       1       3       2       1       1       3
       2       1       1       3       2       1       1       3       2       1
       1       3       2       1       1       3       2       1       1       3
       2       1       1       3       2       1       1       3       2       1
       1       3       2       1       1       3       2       1       1       3
       2       1       1       3       2       1       1       3       2       1
       1       3       2       1       1       3       2       1       1       3
       2       1       1       3       2       1       1       3       2       1
       1       3       2       1       1       3       2       1       1       3
       2       1       1       3       2       1       1       3       2       1
       1       3       2       1       1       3       2       1       1       3
       2       1       1       3       2       1       1       3       2       1
       1       3       2       1       1       3       2       1       1       3
       2       1       1       3       2       1       1       3       2       1
       1       3       2       1       1       3       2       1       1       3
       2       1       1       3       2       1       1       3       2       1
       1       3       2       1       1       3       2       1       1       3
       2       1       1       3       2       1       1       3       2       1
       1       3       2       1       1       3       2       1       1       3
       2       1       1       3       2       1       1       3       2       1
       1       3       2       1       1       3       2       1       1       3
       2       1       1       3       2       1       1       3       2       1
       1       3       2       1       1       3       2       1       1       3
       2       1       1       3       2       1       1       3       2       1
       1       3       2       1       1       3       2       1       1       3
       2       1       1       3       2       1       1       3       2       1
       1       3       2       1       1       3       2       1       1       3
       2       1       1       3       2       1       1       3       2       1
       1       3       2       1       1       3       2       1       1       3
       2       1       1       3       2       1       1       3       2       1
       1       3       2       1       1       3       2       1       1       3
       2       1       1       3       2       1       1       3       2       1
       1       3       2       1       1       3       2       1       1       3
       2       1       1       3       2       1       1       3       2       1
       1       3       2       1       1       3       2       1       1       3
       2       1       1       3       2       1       1       3       2       1
       1       3       2       1       1       3       2       1       1       3
       2       1       1       3       2       1       1       3       2       1
       1       3       2       1       1       3       2       1       1       3
       2       1       1       3       2       1       1       3       2       1
       1       3       2       1       1       3       2       1       1       3
       2       1       1       3       2       1       1       3       2       1
       1       3       2       1       1       3       2       1       1       3
       2       1       1       3       2       1       1       3       2       1
       1       3       2       1       1       3       2       1       1       3
       2       1       1       3       2       1       1       3       2       1
       1       3       2       1       1       3       2       1       1       3
       2       1       1       3       2       1       1       3       2       1
       1       3       2       1       1       3       2       1       1       3
       2       1       1       3       2       1       1       3       2       1
       1       3       2       1       1       3       2       1       1       3
       2       1       1       3       2       1       1       3       2       1
       1       3       2       1       1       3       2       1       1       3
       2       1       1       3       2       1       1       3       2       1
       1       3       2       1       1       3       2       1       1       3
       2       1       1       3       2       1       1       3       2       1
       1       3       2       1       1       3       2       1       1       3
       2       1       1       3       2       1       1       3       2       1
       1       3       2       1       1       3       2       1       1       3
       2       1       1       3       2       1       1       3       2       1
       1       3       2       1       1       3       2       1       1       3
       2       1       1       3       2       1       1       3       2       1
       1       3       2       1       1       3       2       1       1       3
       2       1       1       3       2       1       1       3       2       1
       1       3       2       1       1       3       2       1       1       3
       2       1       1       3       2       1       1       3       2       1
       1       3       2       1       1       3       2       1       1       3
       2       1       1       3       2       1       1       3       2       1
       1       3       2       1       1       3       2       1       1       3
       2       1       1       3       2       1       1       3       2       1
       1       3       2       1       1       3       2       1       1       3
       2       1       1       3       2       1       1       3       2       1
       1       3       2       1       1       3       2       1       1       3
       2       1       1       3       2       1       1       3       2       1
       1       3       2       1       1       3       2       1       1       3
       2       1       1       3       2       1       1       3       2       1
       1       3       2       1       1       3       2       1       1       3
       2       1       1       3       2       1       1       3       2       1
       1       3       2       1       1       3       2       1       1       3
       2       1       1       3       2       1       1       3       2       1
       1       3       2       1       1       3       2       1       1       3
       2       1       1       3       2       1       1       3       2       1
       1       3       2       1       1       3       2       1       1       3
       2       1       1       3       2       1       1       3       2       1
       1       3       2       1       1       3       2       1       1       3
       2       1       1       3       2       1       1       3       2       1
       1       3       2       1       1       3       2       1       1       3
       2       1       1       3       2       1       1       3       2       1
       1       3       2       1       1       3       2       1       1       3
       2       1       1       3       2       1       1       3       2       1
       1       3       2       1       1       3       2       1       1       3
       2       1       1       3       2       1       1       3       2       1
       1       3       2       1       1       3       2       1       1       3
       2       1       1       3       2       1       1       3       2       1
       1       3       2       1       1       3       2       1       1       3
       2       1       1       3       2       1       1       3       2       1
       1       3       2       1       1       3       2       1       1       3
       2       1       1       3       2       1       1       3       2       1
       1       3       2       1       1       3       2       1       1       3
       2       1       1       3       2       1       1       3       2       1
       1       3       2       1       1       3       2       1       1       3
       2       1       1       3       2       1       1       3       2       1
       1       3       2       1       1       3       2       1       1       3
       2       1       1       3       2       1       1       3       2       1
       1       3       2       1       1       3       2       1       1       3
       2       1       1       3       2       1       1       3       2       1
       1       3       2       1       1       3       2       1       1       3
       2       1       1       3       2       1       1       3       2       1
       1       3       2       1       1       3       2       1       1       3
       2       1       1       3       2       1       1       3       2       1
       1       3       2       1       1       3       2       1       1       3
       2       1       1       3       2       1       1       3       2       1
       1       3       2       1       1       3       2       1       1       3
       2       1       1       3       2       1       1       3       2       1
       1       3       2       1       1       3       2       1       1       3
       2       1       1       3       2       1       1       3       2       1
       1       3       2       1       1       3       2       1       1       3
       2       1       1       3       2       1       1       3       2       1
       1       3       2       1       1       3       2       1       1       3
       2       1       1       3       2       1       1       3       2       1
       1       3       2       1       1       3       2       1       1       3
       2       1       1       3       2       1       1       3       2       1
       1       3       2       1       1       3       2       1       1       3
       2       1       1       3       2       1       1       3       2       1
       1       3       2       1       1       3       2       1       1       3
       2       1       1       3       2       1       1       3       2       1
       1       3       2       1       1       3       2       1       1       3
       2       1       1       3       2       1       1       3       2       1
       1       3       2       1       1       3       2       1       1       3
       2       1       1       3       2       1       1       3       2       1
       1       3       2       1       1       3       2       1       1       3
       2       1       1       3       2       1       1       3       2       1
       1       3       2       1       1       3       2       1       1       3
       2       1       1       3       2       1       1       3       2       1
       1       3       2       1       1       3       2       1       1       3
       2       1       1       3       2       1       1       3       2       1
       1       3       2       1       1       3       2       1       1       3
       2       1       1       3       2       1       1       3       2       1
       1       3       2       1       1       3       2       1       1       3
       2       1       1       3       2       1       1       3       2       1
       1       3       2       1       1       3       2       1       1       3
       2       1       1       3       2       1       1       3       2       1
       1       3       2       1       1       3       2       1       1       3
       2       1       1       3       2       1       1       3       2       1
       1       3       2       1       1       3       2       1       1       3
       2       1       1       3       2       1       1       3       2       1
       1       3       2       1       1       3       2       1       1       3
       2       1       1       3       2       1       1       3       2       1
       1       3       2       1       1       3       2       1       1       3
       2       1       1       3       2       1       1       3       2       1
       1       3       2       1       1       3       2       1       1       3
       2       1       1       3       2       1       1       3       2       1
       1       3       2       1       1       3       2       1       1       3
       2       1       1       3       2       1       1       3       2       1
       1       3       2       1       1       3       2       1       1       3
       2       1       1       3       2       1       1       3       2       1
       1       3       2       1       1       3       2       1       1       3
       2       1       1       3       2       1       1       3       2       1
       1       3       2       1       1       3       2       1       1       3
       2       1       1       3       2       1       1       3       2       1
       1       3       2       1       1       3       2       1       1       3
       2       1       1       3       2       1       1       3       2       1
       1       3       2       1       1       3       2       1       1       3
       2       1       1       3       2       1       1       3       2       1
       1       3       2       1       1       3       2       1       1       3
       2       1       1       3       2       1       1       3       2       1
       1       3       2       1       1       3       2       1       1       3
       2       1       1       3       2       1       1       3       2       1
       1       3       2       1       1       3       2       1       1       3
       2       1       1       3       2       1       1       3       2       1
       1       3       2       1       1       3       2       1       1       3
       2       1       1       3       2       1       1       3       2       1
       1       3       2       1       1       3       2       1       1       3
       2       1       1       3       2       1       1       3       2       1
       1       3       2       1       1       3       2       1       1       3
       2       1       1       3       2       1       1       3       2       1
       1       3       2       1       1       3       2       1       1       3
       2       1       1       3       2       1       1       3       2       1
       1       3       2       1       1       3       2       1       1       3
       2       1       1       3       2       1       1       3       2       1
       1       3       2       1       1       3       2       1       1       3
       2       1       1       3       2       1       1       3       2       1
       1       3       2       1       1       3       2       1       1       3
       2       1       1       3       2       1       1       3       2       1
       1       3       2       1       1       3       2       1       1       3
       2       1       1       3       2       1       1       3       2       1
       1       3       2       1       1       3       2       1       1       3
       2       1       1       3       2       1       1       3       2       1
       1       3       2       1       1       3       2       1       1       3
       2       1       1       3       2       1       1       3       2       1
       1       3       2       1       1       3       2       1       1       3
       2       1       1       3       2       1       1       3       2       1
       1       3       2       1       1       3       2       1       1       3
       2       1       1       3       2       1       1       3       2       1
       1       3       2       1       1       3       2       1       1       3
       2       1       1       3       2       1       1       3       2       1
       1       3       2       1       1       3       2       1       1       3
       2       1       1       3       2       1       1       3       2       1
       1       3       2       1       1       3       2       1       1       3
       2       1       1       3       2       1       1       3       2       1
       1       3       2       1       1       3       2       1       1       3
       2       1       1       3       2       1       1       3       2       1
       1       3       2       1       1       3       2       1       1       3
       2       1       1       3       2       1       1       3       2       1
       1       3       2       1       1       3       2       1       1       3
       2       1       1       3       2       1       1       3       2       1
       1       3       2       1       1       3       2       1       1       3
       2       1       1       3       2       1       1       3       2       1
       1       3       2       1       1       3       2       1       1       3
       2       1       1       3       2       1       1       3       2       1
       1       3       2       1       1       3       2       1       1       3
       2       1       1       3       2       1       1       3       2       1
       1       3       2       1       1       3       2       1       1       3
       2       1       1       3       2       1       1       3       2       1
       1       3       2       1       1       3       2       1       1       3
       2       1       1       3       2       1       1       3       2       1
       1       3       2       1       1       3       2       1       1       3
       2       1       1       3       2       1       1       3       2       1
       1       3       2       1       1       3       2       1       1       3
       2       1       1       3       2       1       1       3       2       1
       1       3       2       1       1       3       2       1       1       3
       2       1       1       3       2       1       1       3       2       1
       1       3       2       1       1       3       2       1       1       3
       2       1       1       3       2       1       1       3       2       1
       1       3       2       1       1       3       2       1       1       3
       2       1       1       3       2       1       1       3       2       1
       1       3       2       1       1       3       2       1       1       3
       2       1       1       3       2       1       1       3       2       1
       1       3       2       1       1       3       2       1       1       3
       2       1       1       3       2       1       1       3       2       1
       1       3       2       1       1       3       2       1       1       3
       2       1       1       3       2       1       1       3       2       1
       1       3       2       1       1       3       2       1       1       3
       2       1       1       3       2       1       1       3       2       1
       1       3       2       1       1       3       2       1       1       3
       2       1       1       3       2       1       1       3       2       1
       1       3       2       1       1       3       2       1       1       3
       2       1       1       3       2       1       1       3       2       1
       1       3       2       1       1       3       2       1       1       3
       2       1       1       3       2       1       1       3       2       1
       1       3       2       1       1       3       2       1       1       3
       2       1       1       3       2       1       1       3       2       1
       1       3       2       1       1       3       2       1       1       3
       2       1       1       3       2       1       1       3       2       1
       1       3       2       1       1       3       2       1       1       3
       2       1       1       3       2       1       1       3       2       1
       1       3       2       1       1       3       2       1       1       3
       2       1       1       3       2       1       1       3       2       1
       1       3       2       1       1       3       2       1       1       3
       2       1       1       3       2       1       1       3       2       1
       1       3       2       1       1       3       2       1       1       3
       2       1       1       3       2       1       1       3       2       1
       1       3       2       1       1       3       2       1       1       3
       2       1       1       3       2       1       1       3       2       1
       1       3       2       1       1       3       2       1       1       3
       2       1       1       3       2       1       1       3       2       1
       1       3       2       1       1       3       2       1       1       3
       2       1       1       3       2       1       1       3       2       1
       1       3       2       1       1       3       2       1       1       3
       2       1       1       3       2       1       1       3       2       1
       1       3       2       1       1       3       2       1       1       3
       2       1       1       3       2       1       1       3       2       1
       1       3       2       1       1       3       2       1       1       3
       2       1       1       3       2       1       1       3       2       1
       1       3       2       1       1       3       2       1       1       3
       2       1       1       3       2       1       1       3       2       1
       1       3       2       1       1       3       2       1       1       3
       2       1       1       3       2       1       1       3       2       1
       1       3       2       1       1       3       2       1       1       3
       2       1       1       3       2       1       1       3       2       1
       1       3       2       1       1       3       2       1       1       3
       2       1       1       3       2       1       1       3       2       1
       1       3       2       1       1       3       2       1       1       3
       2       1       1       3       2       1       1       3       2       1
       1       3       2       1       1       3       2       1       1       3
       2       1       1       3       2       1       1       3       2       1
       1       3       2       1       1       3       2       1       1       3
       2       1       1       3       2       1       1       3       2       1
       1       3       2       1       1       3       2       1       1       3
       2       1       1       3       2       1       1       3       2       1
       1       3       2       1       1       3       2       1       1       3
       2       1       1       3       2       1       1       3       2       1
       1       3       2       1       1       3       2       1       1       3
       2       1       1       3       2       1       1       3       2       1
       1       3       2       1       1       3       2       1       1       3
       2       1       1       3       2       1       1       3       2       1
       1       3       2       1       1       3       2       1       1       3
       2       1       1       3       2       1       1       3       2       1
       1       3       2       1       1       3       2       1       1       3
       2       1       1       3       2       1       1       3       2       1
       1       3       2       1       1       3       2       1       1       3
       2       1       1       3       2       1       1       3       2       1
       1       3       2       1       1       3       2       1       1       3
       2       1       1       3       2       1       1       3       2       1
       1       3       2       1       1       3       2       1       1       3
       2       1       1       3       2       1       1       3       2       1
       1       3       2       1       1       3       2       1       1       3
       2       1       1       3       2       1       1       3       2       1
       1       3       2       1       1       3       2       1       1       3
       2       1       1       3       2       1       1       3       2       1
       1       3       2       1       1       3       2       1       1       3
       2       1       1       3       2       1       1       3       2       1
       1       3       2       1       1       3       2       1       1       3
       2       1       1       3       2       1       1       3       2       1
       1       3       2       1       1       3       2       1       1       3
       2       1       1       3       2       1       1       3       2       1
       1       3       2       1       1       3       2       1       1       3
       2       1       1       3       2       1       1       3       2       1
       1       3       2       1       1       3       2       1       1       3
       2       1       1       3       2       1       1       3       2       1
       1       3       2       1       1       3       2       1       1       3
       2       1       1       3       2       1       1       3       2       1
       1       3       2       1       1       3       2       1       1       3
       2       1       1       3       2       1       1       3       2       1
       1       3       2       1       1       3       2       1       1       3
       2       1       1       3       2       1       1       3       2       1
       1       3       2       1       1       3       2       1       1       3
       2       1       1       3       2       1       1       3       2       1
       1       3       2       1       1       3       2       1       1       3
       2       1       1       3       2       1       1       3       2       1
       1       3       2       1       1       3       2       1       1       3
       2       1       1       3       2       1       1       3       2       1
       1       3       2       1       1       3       2       1       1       3
       2       1       1       3       2       1       1       3       2       1
       1       3       2       1       1       3       2       1       1       3
       2       1       1       3       2       1       1       3       2       1
       1       3       2       1       1       3       2       1       1       3
       2       1       1       3       2       1       1       3       2       1
       1       3       2       1       1       3       2       1       1       3
       2       1       1       3       2       1       1       3       2       1
       1       3       2       1       1       3       2       1       1       3
       2       1       1       3       2       1       1       3       2       1
       1       3       2       1       1       3       2       1       1       3
       2       1       1       3       2       1       1       3       2       1
       1       3       2       1       1       3       2       1       1       3
       2       1       1       3       2       1       1       3       2       1
       1       3       2       1       1       3       2       1       1       3
       2       1       1       3       2       1       1       3       2       1
       1       3       2       1       1       3       2       1       1       3
       2       1       1       3       2       1       1       3       2       1
       1       3       2       1       1       3       2       1       1       3
       2       1       1       3       2       1       1       3       2       1
       1       3       2       1       1       3       2       1       1       3
       2       1       1       3       2       1       1       3       2       1
       1       3       2       1       1       3       2       1       1       3
       2       1       1       3       2       1       1       3       2       1
       1       3       2       1       1       3       2       1       1       3
       2       1       1       3       2       1       1       3       2       1
       1       3       2       1       1       3       2       1       1       3
       2       1       1       3       2       1       1       3       2       1
       1       3       2       1       1       3       2       1       1       3
       2       1       1       3       2       1       1       3       2       1
       1       3       2       1       1       3       2       1       1       3
       2       1       1       3       2       1       1       3       2       1
       1       3       2       1       1       3       2       1       1       3
       2       1       1       3       2       1       1       3       2       1
       1       3       2       1       1       3       2       1       1       3
       2       1       1       3       2       1       1       3       2       1
       1       3       2       1       1       3       2       1       1       3
       2       1       1       3       2       1       1       3       2       1
       1       3       2       1       1       3       2       1       1       3
       2       1       1       3       2       1       1       3       2       1
       1       3       2       1       1       3       2       1       1       3
       2       1       1       3       2       1       1       3       2       1
       1       3       2       1       1       3       2       1       1       3
       2       1       1       3       2       1       1       3       2       1
       1       3       2       1       1       3       2       1       1       3
       2       1       1       3       2       1       1       3       2       1
       1       3       2       1       1       3       2       1       1       3
       2       1       1       3       2       1       1       3       2       1
       1       3       2       1       1       3       2       1       1       3
       2       1       1       3       2       1       1       3       2       1
       1       3       2       1       1       3       2       1       1       3
       2       1       1       3       2       1       1       3       2       1
       1       3       2       1       1       3       2       1       1       3
       2       1       1       3       2       1       1       3       2       1
       1       3       2       1       1       3       2       1       1       3
       2       1       1       3       2       1       1       3       2       1
       1       3       2       1       1       3       2       1       1       3
       2       1       1       3       2       1       1       3       2       1
       1       3       2       1       1       3       2       1       1       3
       2       1       1       3       2       1       1       3       2       1
       1       3       2       1       1       3       2       1       1       3
       2       1       1       3       2       1       1       3       2       1
       1       3       2       1       1       3       2       1       1       3
       2       1       1       3       2       1       1       3       2       1
       1       3       2       1       1       3       2       1       1       3
       2       1       1       3       2       1       1       3       2       1
       1       3       2       1       1       3       2       1       1       3
       2       1       1       3       2       1       1       3       2       1
       1       3       2       1       1       3       2       1       1       3
       2       1       1       3       2       1       1       3       2       1
       1       3       2       1       1       3       2       1       1       3
       2       1       1       3       2       1       1       3       2       1
       1       3       2       1       1       3       2       1       1       3
       2       1       1       3       2       1       1       3       2       1
       1       3       2       1       1       3       2       1       1       3
       2       1       1       3       2       1       1       3       2       1
       1       3       2       1       1       3       2       1       1       3
       2       1       1       3       2       1       1       3       2       1
       1       3       2       1       1       3       2       1       1       3
       2       1       1       3       2       1       1       3       2       1
       1       3       2       1       1       3       2       1       1       3
       2       1       1       3       2       1       1       3       2       1
       1       3       2       1       1       3       2       1       1       3
       2       1       1       3       2       1       1       3       2       1
       1       3       2       1       1       3       2       1       1       3
       2       1       1       3       2       1       1       3       2       1
       1       3       2       1       1       3       2       1       1       3
       2       1       1       3       2       1       1       3       2       1
       1       3       2       1       1       3       2       1       1       3
       2       1       1       3       2       1       1       3       2       1
       1       3       2       1       1       3       2       1       1       3
       2       1       1       3       2       1       1       3       2       1
       1       3       2       1       1       3       2       1       1       3
       2       1       1       3       2       1       1       3       2       1
       1       3       2       1       1       3       2       1       1       3
       2       1       1       3       2       1       1       3       2       1
       1       3       2       1       1       3       2       1       1       3
       2       1       1       3       2       1       1       3       2       1
       1       3       2       1       1       3       2       1       1       3
       2       1       1       3       2       1       1       3       2       1
       1       3       2       1       1       3       2       1       1       3
       2       1       1       3       2       1       1       3       2       1
       1       3       2       1       1       3       2       1       1       3
       2       1       1       3       2       1       1       3       2       1
       1       3       2       1       1       3       2       1       1       3
       2       1       1       3       2       1       1       3       2       1
       1       3       2       1       1       3       2       1       1       3
       2       1       1       3       2       1       1       3       2       1
       1       3       2       1       1       3       2       1       1       3
       2       1       1       3       2       1       1       3       2       1
       1       3       2       1       1       3       2       1       1       3
       2       1       1       3       2       1       1       3       2       1
       1       3       2       1       1       3       2       1       1       3
       2       1       1       3       2       1       1       3       2       1
       1       3       2       1       1       3       2       1       1       3
       2       1       1       3       2       1       1       3       2       1
       1       3       2       1       1       3       2       1       1       3
       2       1       1       3       2       1       1       3       2       1
       1       3       2       1       1       3       2       1       1       3
       2       1       1       3       2       1       1       3       2       1
       1       3       2       1       1       3       2       1       1       3
       2       1       1       3       2       1       1       3       2       1
       1       3       2       1       1       3       2       1       1       3
       2       1       1       3       2       1       1       3       2       1
       1       3       2       1       1       3       2       1       1       3
       2       1       1       3       2       1       1       3       2       1
       1       3       2       1       1       3       2       1       1       3
       2       1       1       3       2       1       1       3       2       1
       1       3       2       1       1       3       2       1       1       3
       2       1       1       3       2       1       1       3       2       1
       1       3       2       1       1       3       2       1       1       3
       2       1       1       3       2       1       1       3       2       1
       1       3       2       1       1       3       2       1       1       3
       2       1       1       3       2       1       1       3       2       1
       1       3       2       1       1       3       2       1       1       3
       2       1       1       3       2       1       1       3       2       1
       1       3       2       1       1       3       2       1       1       3
       2       1       1       3       2       1       1       3       2       1
       1       3       2       1       1       3       2       1       1       3
       2       1       1       3       2       1       1       3       2       1
       1       3       2       1       1       3       2       1       1       3
       2       1       1       3       2       1       1       3       2       1
       1       3       2       1       1       3       2       1       1       3
       2       1       1       3       2       1       1       3       2       1
       1       3       2       1       1       3       2       1       1       3
       2       1       1       3       2       1       1       3       2       1
       1       3       2       1       1       3       2       1       1       3
       2       1       1       3       2       1       1       3       2       1
       1       3       2       1       1       3       2       1       1       3
       2       1       1       3       2       1       1       3       2       1
       1       3       2       1       1       3       2       1       1       3
       2       1       1       3       2       1       1       3       2       1
       1       3       2       1       1       3       2       1       1       3
       2       1       1       3       2       1       1       3       2       1
       1       3       2       1       1       3       2       1       1       3
       2       1       1       3       2       1       1       3       2       1
       1       3       2       1       1       3       2       1       1       3
       2       1       1       3       2       1       1       3       2       1
       1       3       2       1       1       3       2       1       1       3
       2       1       1       3       2       1       1       3       2       1
       1       3       2       1       1       3       2       1       1       3
       2       1       1       3       2       1       1       3       2       1
       1       3       2       1       1       3       2       1       1       3
       2       1       1       3       2       1       1       3       2       1
       1       3       2       1       1       3       2       1       1       3
       2       1       1       3       2       1       1       3       2       1
       1       3       2       1       1       3       2       1       1       3
       2       1       1       3       2       1       1       3       2       1
       1       3       2       1       1       3       2       1       1       3
       2       1       1       3       2       1       1       3       2       1
       1       3       2       1       1       3       2       1       1       3
       2       1       1       3       2       1       1       3       2       1
       1       3       2       1       1       3       2       1       1       3
       2       1       1       3       2       1       1       3       2       1
       1       3       2       1       1       3       2       1       1       3
       2       1       1       3       2       1       1       3       2       1
       1       3       2       1       1       3       2       1       1       3
       2       1       1       3       2       1       1       3       2       1
       1       3       2       1       1       3       2       1       1       3
       2       1       1       3       2       1       1       3       2       1
       1       3       2       1       1       3       2       1       1       3
       2       1       1       3       2       1       1       3       2       1
       1       3       2       1       1       3       2       1       1       3
       2       1       1       3       2       1       1       3       2       1
       1       3       2       1       1       3       2       1       1       3
       2       1       1       3       2       1       1       3       2       1
       1       3       2       1       1       3       2       1       1       3
       2       1       1       3       2       1       1       3       2       1
       1       3       2       1       1       3       2       1       1       3
       2       1       1       3       2       1       1       3       2       1
       1       3       2       1       1       3       2       1       1       3
       2       1       1       3       2       1       1       3       2       1
       1       3       2       1       1       3       2       1       1       3
       2       1       1       3       2       1       1       3       2       1
       1       3       2       1       1       3       2       1       1       3
       2       1       1       3       2       1       1       3       2       1
       1       3       2       1       1       3       2       1       1       3
       2       1       1       3       2       1       1       3       2       1
       1       3       2       1       1       3       2       1       1       3
       2       1       1       3       2       1       1       3       2       1
       1       3       2       1       1       3       2       1       1       3
       2       1       1       3       2       1       1       3       2       1
       1       3       2       1       1       3       2       1       1       3
       2       1       1       3       2       1       1       3       2       1
       1       3       2       1       1       3       2       1       1       3
       2       1       1       3       2       1       1       3       2       1
       1       3       2       1       1       3       2       1       1       3
       2       1       1       3       2       1       1       3       2       1
       1       3       2       1       1       3       2       1       1       3
       2       1       1       3       2       1       1       3       2       1
       1       3       2       1       1       3       2       1       1       3
       2       1       1       3       2       1       1       3       2       1
       1       3       2       1       1       3       2       1       1       3
       2       1       1       3       2       1       1       3       2       1
       1       3       2       1       1       3       2       1       1       3
       2       1       1       3       2       1       1       3       2       1
       1       3       2       1       1       3       2       1       1       3
       2       1       1       3       2       1       1       3       2       1
       1       3       2       1       1       3       2       1       1       3
       2       1       1       3       2       1       1       3       2       1
       1       3       2       1       1       3       2       1       1       3
       2       1       1       3       2       1       1       3       2       1
       1       3       2       1       1       3       2       1       1       3
       2       1       1       3       2       1       1       3       2       1
       1       3       2       1       1       3       2       1       1       3
       2       1       1       3       2       1       1       3       2       1
       1       3       2       1       1       3       2       1       1       3
       2       1       1       3       2       1       1       3       2       1
       1       3       2       1       1       3       2       1       1       3
       2       1       1       3       2       1       1       3       2       1
       1       3       2       1       1       3       2       1       1       3
       2       1       1       3       2       1       1       3       2       1
       1       3       2       1       1       3       2       1       1       3
       2       1       1       3       2       1       1       3       2       1
       1       3       2       1       1       3       2       1       1       3
       2       1       1       3       2       1       1       3       2       1
       1       3       2       1       1       3       2       1       1       3
       2       1       1       3       2       1       1       3       2       1
       1       3       2       1       1       3       2       1       1       3
       2       1       1       3       2       1       1       3       2       1
       1       3       2       1       1       3       2       1       1       3
       2       1       1       3       2       1       1       3       2       1
       1       3       2       1       1       3       2       1       1       3
       2       1       1       3       2       1       1       3       2       1
       1       3       2       1       1       3       2       1       1       3
       2       1       1       3       2       1       1       3       2       1
       1       3       2       1       1       3       2       1       1       3
       2       1       1       3       2       1       1       3       2       1
       1       3       2       1       1       3       2       1       1       3
       2       1       1       3       2       1       1       3       2       1
       1       3       2       1       1       3       2       1       1       3
       2       1       1       3       2       1       1       3       2       1
       1       3       2       1       1       3       2       1       1       3
       2       1       1       3       2       1       1       3       2       1
       1       3       2       1       1       3       2       1       1       3
       2       1       1       3       2       1       1       3       2       1
       1       3       2       1       1       3       2       1       1       3
       2       1       1       3       2       1       1       3       2       1
       1       3       2       1       1       3       2       1       1       3
       2       1       1       3       2       1       1       3       2       1
       1       3       2       1       1       3       2       1       1       3
       2       1       1       3       2       1       1       3       2       1
       1       3       2       1       1       3       2       1       1       3
       2       1       1       3       2       1       1       3       2       1
       1       3       2       1       1       3       2       1       1       3
       2       1       1       3       2       1       1       3       2       1
       1       3       2       1       1       3       2       1       1       3
       2       1       1       3       2       1       1       3       2       1
       1       3       2       1       1       3       2       1       1       3
       2       1       1       3       2       1       1       3       2       1
       1       3       2       1       1       3       2       1       1       3
       2       1       1       3       2       1       1       3       2       1
       1       3       2       1       1       3       2       1       1       3
       2       1       1       3       2       1       1       3       2       1
       1       3       2       1       1       3       2       1       1       3
       2       1       1       3       2       1       1       3       2       1
       1       3       2       1       1       3       2       1       1       3
       2       1       1       3       2       1       1       3       2       1
       1       3       2       1       1       3       2       1       1       3
       2       1       1       3       2       1       1       3       2       1
       1       3       2       1       1       3       2       1       1       3
       2       1       1       3       2       1       1       3       2       1
       1       3       2       1       1       3       2       1       1       3
       2       1       1       3       2       1       1       3       2       1
       1       3       2       1       1       3       2       1       1       3
       2       1       1       3       2       1       1       3       2       1
       1       3       2       1       1       3       2       1       1       3
       2       1       1       3       2       1       1       3       2       1
       1       3       2       1       1       3       2       1       1       3
       2       1       1       3       2       1       1       3       2       1
       1       3       2       1       1       3       2       1       1       3
       2       1       1       3       2       1       1       3       2       1
       1       3       2       1       1       3       2       1       1       3
       2       1       1       3       2       1       1       3       2       1
       1       3       2       1       1       3       2       1       1       3
       2       1       1       3       2       1       1       3       2       1
       1       3       2       1       1       3       2       1       1       3
       2       1       1       3       2       1       1       3       2       1
       1       3       2       1       1       3       2       1       1       3
       2       1       1       3       2       1       1       3       2       1
       1       3       2       1       1       3       2       1       1       3
       2       1       1       3       2       1       1       3       2       1
       1       3       2       1       1       3       2       1       1       3
       2       1       1       3       2       1       1       3       2       1
       1       3       2       1       1       3       2       1       1       3
       2       1       1       3       2       1       1       3       2       1
       1       3       2       1       1       3       2       1       1       3
       2       1       1       3       2       1       1       3       2       1
       1       3       2       1       1       3       2       1       1       3
       2       1       1       3       2       1       1       3       2       1
       1       3       2       1       1       3       2       1       1       3
       2       1       1       3       2       1       1       3       2       1
       1       3       2       1       1       3       2       1       1       3
       2       1       1       3       2       1       1       3       2       1
       1       3       2       1       1       3       2       1       1       3
       2       1       1       3       2       1       1       3       2       1
       1       3       2       1       1       3       2       1       1       3
       2       1       1       3       2       1       1       3       2       1
       1       3       2       1       1       3       2       1       1       3
       2       1       1       3       2       1       1       3       2       1
       1       3       2       1       1       3       2       1       1       3
       2       1       1       3       2       1       1       3       2       1
       1       3       2       1       1       3       2       1       1       3
       2       1       1       3       2       1       1       3       2       1
       1       3       2       1       1       3       2       1       1       3
       2       1       1       3       2       1       1       3       2       1
       1       3       2       1       1       3       2       1       1       3
       2       1       1       3       2       1       1       3       2       1
       1       3       2       1       1       3       2       1       1       3
       2       1       1       3       2       1       1       3       2       1
       1       3       2       1       1       3       2       1       1       3
       2       1       1       3       2       1       1       3       2       1
       1       3       2       1       1       3       2       1       1       3
       2       1       1       3       2       1       1       3       2       1
       1       3       2       1       1       3       2       1       1       3
       2       1       1       3       2       1       1       3       2       1
       1       3       2       1       1       3       2       1       1       3
       2       1       1       3       2       1       1       3       2       1
       1       3       2       1       1       3       2       1       1       3
       2       1       1       3       2       1       1       3       2       1
       1       3       2       1       1       3       2       1       1       3
       2       1       1       3       2       1       1       3       2       1
       1       3       2       1       1       3       2       1       1       3
       2       1       1       3       2       1       1       3       2       1
       1       3       2       1       1       3       2       1       1       3
       2       1       1       3       2       1       1       3       2       1
       1       3       2       1       1       3       2       1       1       3
       2       1       1       3       2       1       1       3       2       1
       1       3       2       1       1       3       2       1       1       3
       2       1       1       3       2       1       1       3       2       1
       1       3       2       1       1       3       2       1       1       3
       2       1       1       3       2       1       1       3       2       1
       1       3       2       1       1       3       2       1       1       3
       2       1       1       3       2       1       1       3       2       1
       1       3       2       1       1       3       2       1       1       3
       2       1       1       3       2       1       1       3       2       1
       1       3       2       1       1       3       2       1       1       3
       2       1       1       3       2       1       1       3       2       1
       1       3       2       1       1       3       2       1       1       3
       2       1       1       3       2       1       1       3       2       1
       1       3       2       1       1       3       2       1       1       3
       2       1       1       3       2       1       1       3       2       1
       1       3       2       1       1       3       2       1       1       3
       2       1       1       3       2       1       1       3       2       1
       1       3       2       1       1       3       2       1       1       3
       2       1       1       3       2       1       1       3       2       1
       1       3       2       1       1       3       2       1       1       3
       2       1       1       3       2       1       1       3       2       1
       1       3       2       1       1       3       2       1       1       3
       2       1       1       3       2       1       1       3       2       1
       1       3       2       1       1       3       2       1       1       3
       2       1       1       3       2       1       1       3       2       1
       1       3       2       1       1       3       2       1       1       3
       2       1       1       3       2       1       1       3       2       1
       1       3       2       1       1       3       2       1       1       3
       2       1       1       3       2       1       1       3       2       1
       1       3       2       1       1       3       2       1       1       3
       2       1       1       3       2       1       1       3       2       1
       1       3       2       1       1       3       2       1       1       3
       2       1       1       3       2       1       1       3       2       1
       1       3       2       1       1       3       2       1       1       3
       2       1       1       3       2       1       1       3       2       1
       1       3       2       1       1       3       2       1       1       3
       2       1       1       3       2       1       1       3       2       1
       1       3       2       1       1       3       2       1       1       3
       2       1       1       3       2       1       1       3       2       1
       1       3       2       1       1       3       2       1       1       3
       2       1       1       3       2       1       1       3       2       1
       1       3       2       1       1       3       2       1       1       3
       2       1       1       3       2       1       1       3       2       1
       1       3       2       1       1       3       2       1       1       3
       2       1       1       3       2       1       1       3       2       1
       1       3       2       1       1       3       2       1       1       3
       2       1       1       3       2       1       1       3       2       1
       1       3       2       1       1       3       2       1       1       3
       2       1       1       3       2       1       1       3       2       1
       1       3       2       1       1       3       2       1       1       3
       2       1       1       3       2       1       1       3       2       1
       1       3       2       1       1       3       2       1       1       3
       2       1       1       3       2       1       1       3       2       1
       1       3       2       1       1       3       2       1       1       3
       2       1       1       3       2       1       1       3       2       1
       1       3       2       1       1       3       2       1       1       3
       2       1       1       3       2       1       1       3       2       1
       1       3       2       1       1       3       2       1       1       3
       2       1       1       3       2       1       1       3       2       1
       1       3       2       1       1       3       2       1       1       3
       2       1       1       3       2       1       1       3       2       1
       1       3       2       1       1       3       2       1       1       3
       2       1       1       3       2       1       1       3       2       1
       1       3       2       1       1       3       2       1       1       3
       2       1       1       3       2       1       1       3       2       1
       1       3       2       1       1       3       2       1       1       3
       2       1       1       3       2       1       1       3       2       1
       1       3       2       1       1       3       2       1       1       3
       2       1       1       3       2       1       1       3       2       1
       1       3       2       1       1       3       2       1       1       3
       2       1       1       3       2       1       1       3       2       1
       1       3       2       1       1       3       2       1       1       3
       2       1       1       3       2       1       1       3       2       1
       1       3       2       1       1       3       2       1       1       3
       2       1       1       3       2       1       1       3       2       1
       1       3       2       1       1       3       2       1       1       3
       2       1       1       3       2       1       1       3       2       1
       1       3       2       1       1       3       2       1       1       3
       2       1       1       3       2       1       1       3       2       1
       1       3       2       1       1       3       2       1       1       3
       2       1       1       3       2       1       1       3       2       1
       1       3       2       1       1       3       2       1       1       3
       2       1       1       3       2       1       1       3       2       1
       1       3       2       1       1       3       2       1       1       3
       2       1       1       3       2       1       1       3       2       1
       1       3       2       1       1       3       2       1       1       3
       2       1       1       3       2       1       1       3       2       1
       1       3       2       1       1       3       2       1       1       3
       2       1       1       3       2       1       1       3       2       1
       1       3       2       1       1       3       2       1       1       3
       2       1       1       3       2       1       1       3       2       1
       1       3       2       1       1       3       2       1       1       3
       2       1       1       3       2       1       1       3       2       1
       1       3       2       1       1       3       2       1       1       3
       2       1       1       3       2       1       1       3       2       1
       1       3       2       1       1       3       2       1       1       3
       2       1       1       3       2       1       1       3       2       1
       1       3       2       1       1       3       2       1       1       3
       2       1       1       3       2       1       1       3       2       1
       1       3       2       1       1       3       2       1       1       3
       2       1       1       3       2       1       1       3       2       1
       1       3       2       1       1       3       2       1       1       3
       2       1       1       3       2       1       1       3       2       1
       1       3       2       1       1       3       2       1       1       3
       2       1       1       3       2       1       1       3       2       1
       1       3       2       1       1       3       2       1       1       3
       2       1       1       3       2       1       1       3       2       1
       1       3       2       1       1       3       2       1       1       3
       2       1       1       3       2       1       1       3       2       1
       1       3       2       1       1       3       2       1       1       3
       2       1       1       3       2       1       1       3       2       1
       1       3       2       1       1       3       2       1       1       3
       2       1       1       3       2       1       1       3       2       1
       1       3       2       1       1       3       2       1       1       3
       2       1       1       3       2       1       1       3       2       1
       1       3       2       1       1       3       2       1       1       3
       2       1       1       3       2       1       1       3       2       1
       1       3       2       1       1       3       2       1       1       3
       2       1       1       3       2       1       1       3       2       1
       1       3       2       1       1       3       2       1       1       3
       2       1       1       3       2       1       1       3       2       1
       1       3       2       1       1       3       2       1       1       3
       2       1       1       3       2       1       1       3       2       1
       1       3       2       1       1
%FLAG NONBONDED_PARM_INDEX                                                      
%FORMAT(10I8)                                                                   
       1       2       4       7      11      16      22      29      37      46
      56      67      79      92       2       3       5       8      12      17
      23      30      38      47      57      68      80      93       4       5
       6       9      13      18      24      31      39      48      58      69
      81      94       7       8       9      10      14      19      25      32
      40      49      59      70      82      95      11      12      13      14
      15      20      26      33      41      50      60      71      83      96
      16      17      18      19      20      21      27      34      42      51
      61      72      84      97      22      23      24      25      26      27
      28      35      43      52      62      73      85      98      29      30
      31      32      33      34      35      36      44      53      63      74
      86      99      37      38      39      40      41      42      43      44
      45      54      64      75      87     100      46      47      48      49
      50      51      52      53      54      55      65      76      88     101
      56      57      58      59      60      61      62      63      64      65
      66      77      89     102      67      68      69      70      71      72
      73      74      75      76      77      78      90     103      79      80
      81      82      83      84      85      86      87      88      89      90
      91     104      92      93      94      95      96      97      98      99
     100     101     102     103     104     105
%FLAG RESIDUE_LABEL                                                             
%FORMAT(20a4)                                                                   
Na+ Cl- Na+ Cl- Na+ Cl- Na+ Cl- Na+ Cl- LIG WAT WAT WAT WAT WAT WAT WAT WAT WAT 
WAT WAT WAT WAT WAT WAT WAT WAT WAT WAT WAT WAT WAT WAT WAT WAT WAT WAT WAT WAT 
WAT WAT WAT WAT WAT WAT WAT WAT WAT WAT WAT WAT WAT WAT WAT WAT WAT WAT WAT WAT 
WAT WAT WAT WAT WAT WAT WAT WAT WAT WAT WAT WAT WAT WAT WAT WAT WAT WAT WAT WAT 
WAT WAT WAT WAT WAT WAT WAT WAT WAT WAT WAT WAT WAT WAT WAT WAT WAT WAT WAT WAT 
WAT WAT WAT WAT WAT WAT WAT WAT WAT WAT WAT WAT WAT WAT WAT WAT WAT WAT WAT WAT 
WAT WAT WAT WAT WAT WAT WAT WAT WAT WAT WAT WAT WAT WAT WAT WAT WAT WAT WAT WAT 
WAT WAT WAT WAT WAT WAT WAT WAT WAT WAT WAT WAT WAT WAT WAT WAT WAT WAT WAT WAT 
WAT WAT WAT WAT WAT WAT WAT WAT WAT WAT WAT WAT WAT WAT WAT WAT WAT WAT WAT WAT 
WAT WAT WAT WAT WAT WAT WAT WAT WAT WAT WAT WAT WAT WAT WAT WAT WAT WAT WAT WAT 
WAT WAT WAT WAT WAT WAT WAT WAT WAT WAT WAT WAT WAT WAT WAT WAT WAT WAT WAT WAT 
WAT WAT WAT WAT WAT WAT WAT WAT WAT WAT WAT WAT WAT WAT WAT WAT WAT WAT WAT WAT 
WAT WAT WAT WAT WAT WAT WAT WAT WAT WAT WAT WAT WAT WAT WAT WAT WAT WAT WAT WAT 
WAT WAT WAT WAT WAT WAT WAT WAT WAT WAT WAT WAT WAT WAT WAT WAT WAT WAT WAT WAT 
WAT WAT WAT WAT WAT WAT WAT WAT WAT WAT WAT WAT WAT WAT WAT WAT WAT WAT WAT WAT 
WAT WAT WAT WAT WAT WAT WAT WAT WAT WAT WAT WAT WAT WAT WAT WAT WAT WAT WAT WAT 
WAT WAT WAT WAT WAT WAT WAT WAT WAT WAT WAT WAT WAT WAT WAT WAT WAT WAT WAT WAT 
WAT WAT WAT WAT WAT WAT WAT WAT WAT WAT WAT WAT WAT WAT WAT WAT WAT WAT WAT WAT 
WAT WAT WAT WAT WAT WAT WAT WAT WAT WAT WAT WAT WAT WAT WAT WAT WAT WAT WAT WAT 
WAT WAT WAT WAT WAT WAT WAT WAT WAT WAT WAT WAT WAT WAT WAT WAT WAT WAT WAT WAT 
WAT WAT WAT WAT WAT WAT WAT WAT WAT WAT WAT WAT WAT WAT WAT WAT WAT WAT WAT WAT 
WAT WAT WAT WAT WAT WAT WAT WAT WAT WAT WAT WAT WAT WAT WAT WAT WAT WAT WAT WAT 
WAT WAT WAT WAT WAT WAT WAT WAT WAT WAT WAT WAT WAT WAT WAT WAT WAT WAT WAT WAT 
WAT WAT WAT WAT WAT WAT WAT WAT WAT WAT WAT WAT WAT WAT WAT WAT WAT WAT WAT WAT 
WAT WAT WAT WAT WAT WAT WAT WAT WAT WAT WAT WAT WAT WAT WAT WAT WAT WAT WAT WAT 
WAT WAT WAT WAT WAT WAT WAT WAT WAT WAT WAT WAT WAT WAT WAT WAT WAT WAT WAT WAT 
WAT WAT WAT WAT WAT WAT WAT WAT WAT WAT WAT WAT WAT WAT WAT WAT WAT WAT WAT WAT 
WAT WAT WAT WAT WAT WAT WAT WAT WAT WAT WAT WAT WAT WAT WAT WAT WAT WAT WAT WAT 
WAT WAT WAT WAT WAT WAT WAT WAT WAT WAT WAT WAT WAT WAT WAT WAT WAT WAT WAT WAT 
WAT WAT WAT WAT WAT WAT WAT WAT WAT WAT WAT WAT WAT WAT WAT WAT WAT WAT WAT WAT 
WAT WAT WAT WAT WAT WAT WAT WAT WAT WAT WAT WAT WAT WAT WAT WAT WAT WAT WAT WAT 
WAT WAT WAT WAT WAT WAT WAT WAT WAT WAT WAT WAT WAT WAT WAT WAT WAT WAT WAT WAT 
WAT WAT WAT WAT WAT WAT WAT WAT WAT WAT WAT WAT WAT WAT WAT WAT WAT WAT WAT WAT 
WAT WAT WAT WAT WAT WAT WAT WAT WAT WAT WAT WAT WAT WAT WAT WAT WAT WAT WAT WAT 
WAT WAT WAT WAT WAT WAT WAT WAT WAT WAT WAT WAT WAT WAT WAT WAT WAT WAT WAT WAT 
WAT WAT WAT WAT WAT WAT WAT WAT WAT WAT WAT WAT WAT WAT WAT WAT WAT WAT WAT WAT 
WAT WAT WAT WAT WAT WAT WAT WAT WAT WAT WAT WAT WAT WAT WAT WAT WAT WAT WAT WAT 
WAT WAT WAT WAT WAT WAT WAT WAT WAT WAT WAT WAT WAT WAT WAT WAT WAT WAT WAT WAT 
WAT WAT WAT WAT WAT WAT WAT WAT WAT WAT WAT WAT WAT WAT WAT WAT WAT WAT WAT WAT 
WAT WAT WAT WAT WAT WAT WAT WAT WAT WAT WAT WAT WAT WAT WAT WAT WAT WAT WAT WAT 
WAT WAT WAT WAT WAT WAT WAT WAT WAT WAT WAT WAT WAT WAT WAT WAT WAT WAT WAT WAT 
WAT WAT WAT WAT WAT WAT WAT WAT WAT WAT WAT WAT WAT WAT WAT WAT WAT WAT WAT WAT 
WAT WAT WAT WAT WAT WAT WAT WAT WAT WAT WAT WAT WAT WAT WAT WAT WAT WAT WAT WAT 
WAT WAT WAT WAT WAT WAT WAT WAT WAT WAT WAT WAT WAT WAT WAT WAT WAT WAT WAT WAT 
WAT WAT WAT WAT WAT WAT WAT WAT WAT WAT WAT WAT WAT WAT WAT WAT WAT WAT WAT WAT 
WAT WAT WAT WAT WAT WAT WAT WAT WAT WAT WAT WAT WAT WAT WAT WAT WAT WAT WAT WAT 
WAT WAT WAT WAT WAT WAT WAT WAT WAT WAT WAT WAT WAT WAT WAT WAT WAT WAT WAT WAT 
WAT WAT WAT WAT WAT WAT WAT WAT WAT WAT WAT WAT WAT WAT WAT WAT WAT WAT WAT WAT 
WAT WAT WAT WAT WAT WAT WAT WAT WAT WAT WAT WAT WAT WAT WAT WAT WAT WAT WAT WAT 
WAT WAT WAT WAT WAT WAT WAT WAT WAT WAT WAT WAT WAT WAT WAT WAT WAT WAT WAT WAT 
WAT WAT WAT WAT WAT WAT WAT WAT WAT WAT WAT WAT WAT WAT WAT WAT WAT WAT WAT WAT 
WAT WAT WAT WAT WAT WAT WAT WAT WAT WAT WAT WAT WAT WAT WAT WAT WAT WAT WAT WAT 
WAT WAT WAT WAT WAT WAT WAT WAT WAT WAT WAT WAT WAT WAT WAT WAT WAT WAT WAT WAT 
WAT WAT WAT WAT WAT WAT WAT WAT WAT WAT WAT WAT WAT WAT WAT WAT WAT WAT WAT WAT 
WAT WAT WAT WAT WAT WAT WAT WAT WAT WAT WAT WAT WAT WAT WAT WAT WAT WAT WAT WAT 
WAT WAT WAT WAT WAT WAT WAT WAT WAT WAT WAT WAT WAT WAT WAT WAT WAT WAT WAT WAT 
WAT WAT WAT WAT WAT WAT WAT WAT WAT WAT WAT WAT WAT WAT WAT WAT WAT WAT WAT WAT 
WAT WAT WAT WAT WAT WAT WAT WAT WAT WAT WAT WAT WAT WAT WAT WAT WAT WAT WAT WAT 
WAT WAT WAT WAT WAT WAT WAT WAT WAT WAT WAT WAT WAT WAT WAT WAT WAT WAT WAT WAT 
WAT WAT WAT WAT WAT WAT WAT WAT WAT WAT WAT WAT WAT WAT WAT WAT WAT WAT WAT WAT 
WAT WAT WAT WAT WAT WAT WAT WAT WAT WAT WAT WAT WAT WAT WAT WAT WAT WAT WAT WAT 
WAT WAT WAT WAT WAT WAT WAT WAT WAT WAT WAT WAT WAT WAT WAT WAT WAT WAT WAT WAT 
WAT WAT WAT WAT WAT WAT WAT WAT WAT WAT WAT WAT WAT WAT WAT WAT WAT WAT WAT WAT 
WAT WAT WAT WAT WAT WAT WAT WAT WAT WAT WAT WAT WAT WAT WAT WAT WAT WAT WAT WAT 
WAT WAT WAT WAT WAT WAT WAT WAT WAT WAT WAT WAT WAT WAT WAT WAT WAT WAT WAT WAT 
WAT WAT WAT WAT WAT WAT WAT WAT WAT WAT WAT WAT WAT WAT WAT WAT WAT WAT WAT WAT 
WAT WAT WAT WAT WAT WAT WAT WAT WAT WAT WAT WAT WAT WAT WAT WAT WAT WAT WAT WAT 
WAT WAT WAT WAT WAT WAT WAT WAT WAT WAT WAT WAT WAT WAT WAT WAT WAT WAT WAT WAT 
WAT WAT WAT WAT WAT WAT WAT WAT WAT WAT WAT WAT WAT WAT WAT WAT WAT WAT WAT WAT 
WAT WAT WAT WAT WAT WAT WAT WAT WAT WAT WAT WAT WAT WAT WAT WAT WAT WAT WAT WAT 
WAT WAT WAT WAT WAT WAT WAT WAT WAT WAT WAT WAT WAT WAT WAT WAT WAT WAT WAT WAT 
WAT WAT WAT WAT WAT WAT WAT WAT WAT WAT WAT WAT WAT WAT WAT WAT WAT WAT WAT WAT 
WAT WAT WAT WAT WAT WAT WAT WAT WAT WAT WAT WAT WAT WAT WAT WAT WAT WAT WAT WAT 
WAT WAT WAT WAT WAT WAT WAT WAT WAT WAT WAT WAT WAT WAT WAT WAT WAT WAT WAT WAT 
WAT WAT WAT WAT WAT WAT WAT WAT WAT WAT WAT WAT WAT WAT WAT WAT WAT WAT WAT WAT 
WAT WAT WAT WAT WAT WAT WAT WAT WAT WAT WAT WAT WAT WAT WAT WAT WAT WAT WAT WAT 
WAT WAT WAT WAT WAT WAT WAT WAT WAT WAT WAT WAT WAT WAT WAT WAT WAT WAT WAT WAT 
WAT WAT WAT WAT WAT WAT WAT WAT WAT WAT WAT WAT WAT WAT WAT WAT WAT WAT WAT WAT 
WAT WAT WAT WAT WAT WAT WAT WAT WAT WAT WAT WAT WAT WAT WAT WAT WAT WAT WAT WAT 
WAT WAT WAT WAT WAT WAT WAT WAT WAT WAT WAT WAT WAT WAT WAT WAT WAT WAT WAT WAT 
WAT WAT WAT WAT WAT WAT WAT WAT WAT WAT WAT WAT WAT WAT WAT WAT WAT WAT WAT WAT 
WAT WAT WAT WAT WAT WAT WAT WAT WAT WAT WAT WAT WAT WAT WAT WAT WAT WAT WAT WAT 
WAT WAT WAT WAT WAT WAT WAT WAT WAT WAT WAT WAT WAT WAT WAT WAT WAT WAT WAT WAT 
WAT WAT WAT WAT WAT WAT WAT WAT WAT WAT WAT WAT WAT WAT WAT WAT WAT WAT WAT WAT 
WAT WAT WAT WAT WAT WAT WAT WAT WAT WAT WAT WAT WAT WAT WAT WAT WAT WAT WAT WAT 
WAT WAT WAT WAT WAT WAT WAT WAT WAT WAT WAT WAT WAT WAT WAT WAT WAT WAT WAT WAT 
WAT WAT WAT WAT WAT WAT WAT WAT WAT WAT WAT WAT WAT WAT WAT WAT WAT WAT WAT WAT 
WAT WAT WAT WAT WAT WAT WAT WAT WAT WAT WAT WAT WAT WAT WAT WAT WAT WAT WAT WAT 
WAT WAT WAT WAT WAT WAT WAT WAT WAT WAT WAT WAT WAT WAT WAT WAT WAT WAT WAT WAT 
WAT WAT WAT WAT WAT WAT WAT WAT WAT WAT WAT WAT WAT WAT WAT WAT WAT WAT WAT WAT 
WAT WAT WAT WAT WAT WAT WAT WAT WAT WAT WAT WAT WAT WAT WAT WAT WAT WAT WAT WAT 
WAT WAT WAT WAT WAT WAT WAT WAT WAT WAT WAT WAT WAT WAT WAT WAT WAT WAT WAT WAT 
WAT WAT WAT WAT WAT WAT WAT WAT WAT WAT WAT WAT WAT WAT WAT WAT WAT WAT WAT WAT 
WAT WAT WAT WAT WAT WAT WAT WAT WAT WAT WAT WAT WAT WAT WAT WAT WAT WAT WAT WAT 
WAT WAT WAT WAT WAT WAT WAT WAT WAT WAT WAT WAT WAT WAT WAT WAT WAT WAT WAT WAT 
WAT WAT WAT WAT WAT WAT WAT WAT WAT WAT WAT WAT WAT WAT WAT WAT WAT WAT WAT WAT 
WAT WAT WAT WAT WAT WAT WAT WAT WAT WAT WAT WAT WAT WAT WAT WAT WAT WAT WAT WAT 
WAT WAT WAT WAT WAT WAT WAT WAT WAT WAT WAT WAT WAT WAT WAT WAT WAT WAT WAT WAT 
WAT WAT WAT WAT WAT WAT WAT WAT WAT WAT WAT WAT WAT WAT WAT WAT WAT WAT WAT WAT 
WAT WAT WAT WAT WAT WAT WAT WAT WAT WAT WAT WAT WAT WAT WAT WAT WAT WAT WAT WAT 
WAT WAT WAT WAT WAT WAT WAT WAT WAT WAT WAT WAT WAT WAT WAT WAT WAT WAT WAT WAT 
WAT WAT WAT WAT WAT WAT WAT WAT WAT WAT WAT WAT WAT WAT WAT WAT WAT WAT WAT WAT 
WAT WAT WAT WAT WAT WAT WAT WAT WAT WAT WAT WAT WAT WAT WAT WAT WAT WAT WAT WAT 
WAT WAT WAT WAT WAT WAT WAT WAT WAT WAT WAT WAT WAT WAT WAT WAT WAT WAT WAT WAT 
WAT WAT WAT WAT WAT WAT WAT WAT WAT WAT WAT WAT WAT WAT WAT WAT WAT WAT WAT WAT 
WAT WAT WAT WAT WAT WAT WAT WAT WAT WAT WAT WAT WAT WAT WAT WAT WAT WAT WAT WAT 
WAT WAT WAT WAT WAT WAT WAT WAT WAT WAT WAT WAT WAT WAT WAT WAT WAT WAT WAT WAT 
WAT WAT WAT WAT WAT WAT WAT WAT WAT WAT WAT WAT WAT WAT WAT WAT WAT WAT WAT WAT 
WAT WAT WAT WAT WAT WAT WAT WAT WAT WAT WAT WAT WAT WAT WAT WAT WAT WAT WAT WAT 
WAT WAT WAT WAT WAT WAT WAT WAT WAT WAT WAT WAT 
%FLAG RESIDUE_POINTER                                                           
%FORMAT(10I8)                                                                   
       1       2       3       4       5       6       7       8       9      10
      11      32      36      40      44      48      52      56      60      64
      68      72      76      80      84      88      92      96     100     104
     108     112     116     120     124     128     132     136     140     144
     148     152     156     160     164     168     172     176     180     184
     188     192     196     200     204     208     212     216     220     224
     228     232     236     240     244     248     252     256     260     264
     268     272     276     280     284     288     292     296     300     304
     308     312     316     320     324     328     332     336     340     344
     348     352     356     360     364     368     372     376     380     384
     388     392     396     400     404     408     412     416     420     424
     428     432     436     440     444     448     452     456     460     464
     468     472     476     480     484     488     492     496     500     504
     508     512     516     520     524     528     532     536     540     544
     548     552     556     560     564     568     572     576     580     584
     588     592     596     600     604     608     612     616     620     624
     628     632     636     640     644     648     652     656     660     664
     668     672     676     680     684     688     692     696     700     704
     708     712     716     720     724     728     732     736     740     744
     748     752     756     760     764     768     772     776     780     784
     788     792     796     800     804     808     812     816     820     824
     828     832     836     840     844     848     852     856     860     864
     868     872     876     880     884     888     892     896     900     904
     908     912     916     920     924     928     932     936     940     944
     948     952     956     960     964     968     972     976     980     984
     988     992     996    1000    1004    1008    1012    1016    1020    1024
    1028    1032    1036    1040    1044    1048    1052    1056    1060    1064
    1068    1072    1076    1080    1084    1088    1092    1096    1100    1104
    1108    1112    1116    1120    1124    1128    1132    1136    1140    1144
    1148    1152    1156    1160    1164    1168    1172    1176    1180    1184
    1188    1192    1196    1200    1204    1208    1212    1216    1220    1224
    1228    1232    1236    1240    1244    1248    1252    1256    1260    1264
    1268    1272    1276    1280    1284    1288    1292    1296    1300    1304
    1308    1312    1316    1320    1324    1328    1332    1336    1340    1344
    1348    1352    1356    1360    1364    1368    1372    1376    1380    1384
    1388    1392    1396    1400    1404    1408    1412    1416    1420    1424
    1428    1432    1436    1440    1444    1448    1452    1456    1460    1464
    1468    1472    1476    1480    1484    1488    1492    1496    1500    1504
    1508    1512    1516    1520    1524    1528    1532    1536    1540    1544
    1548    1552    1556    1560    1564    1568    1572    1576    1580    1584
    1588    1592    1596    1600    1604    1608    1612    1616    1620    1624
    1628    1632    1636    1640    1644    1648    1652    1656    1660    1664
    1668    1672    1676    1680    1684    1688    1692    1696    1700    1704
    1708    1712    1716    1720    1724    1728    1732    1736    1740    1744
    1748    1752    1756    1760    1764    1768    1772    1776    1780    1784
    1788    1792    1796    1800    1804    1808    1812    1816    1820    1824
    1828    1832    1836    1840    1844    1848    1852    1856    1860    1864
    1868    1872    1876    1880    1884    1888    1892    1896    1900    1904
    1908    1912    1916    1920    1924    1928    1932    1936    1940    1944
    1948    1952    1956    1960    1964    1968    1972    1976    1980    1984
    1988    1992    1996    2000    2004    2008    2012    2016    2020    2024
    2028    2032    2036    2040    2044    2048    2052    2056    2060    2064
    2068    2072    2076    2080    2084    2088    2092    2096    2100    2104
    2108    2112    2116    2120    2124    2128    2132    2136    2140    2144
    2148    2152    2156    2160    2164    2168    2172    2176    2180    2184
    2188    2192    2196    2200    2204    2208    2212    2216    2220    2224
    2228    2232    2236    2240    2244    2248    2252    2256    2260    2264
    2268    2272    2276    2280    2284    2288    2292    2296    2300    2304
    2308    2312    2316    2320    2324    2328    2332    2336    2340    2344
    2348    2352    2356    2360    2364    2368    2372    2376    2380    2384
    2388    2392    2396    2400    2404    2408    2412    2416    2420    2424
    2428    2432    2436    2440    2444    2448    2452    2456    2460    2464
    2468    2472    2476    2480    2484    2488    2492    2496    2500    2504
    2508    2512    2516    2520    2524    2528    2532    2536    2540    2544
    2548    2552    2556    2560    2564    2568    2572    2576    2580    2584
    2588    2592    2596    2600    2604    2608    2612    2616    2620    2624
    2628    2632    2636    2640    2644    2648    2652    2656    2660    2664
    2668    2672    2676    2680    2684    2688    2692    2696    2700    2704
    2708    2712    2716    2720    2724    2728    2732    2736    2740    2744
    2748    2752    2756    2760    2764    2768    2772    2776    2780    2784
    2788    2792    2796    2800    2804    2808    2812    2816    2820    2824
    2828    2832    2836    2840    2844    2848    2852    2856    2860    2864
    2868    2872    2876    2880    2884    2888    2892    2896    2900    2904
    2908    2912    2916    2920    2924    2928    2932    2936    2940    2944
    2948    2952    2956    2960    2964    2968    2972    2976    2980    2984
    2988    2992    2996    3000    3004    3008    3012    3016    3020    3024
    3028    3032    3036    3040    3044    3048    3052    3056    3060    3064
    3068    3072    3076    3080    3084    3088    3092    3096    3100    3104
    3108    3112    3116    3120    3124    3128    3132    3136    3140    3144
    3148    3152    3156    3160    3164    3168    3172    3176    3180    3184
    3188    3192    3196    3200    3204    3208    3212    3216    3220    3224
    3228    3232    3236    3240    3244    3248    3252    3256    3260    3264
    3268    3272    3276    3280    3284    3288    3292    3296    3300    3304
    3308    3312    3316    3320    3324    3328    3332    3336    3340    3344
    3348    3352    3356    3360    3364    3368    3372    3376    3380    3384
    3388    3392    3396    3400    3404    3408    3412    3416    3420    3424
    3428    3432    3436    3440    3444    3448    3452    3456    3460    3464
    3468    3472    3476    3480    3484    3488    3492    3496    3500    3504
    3508    3512    3516    3520    3524    3528    3532    3536    3540    3544
    3548    3552    3556    3560    3564    3568    3572    3576    3580    3584
    3588    3592    3596    3600    3604    3608    3612    3616    3620    3624
    3628    3632    3636    3640    3644    3648    3652    3656    3660    3664
    3668    3672    3676    3680    3684    3688    3692    3696    3700    3704
    3708    3712    3716    3720    3724    3728    3732    3736    3740    3744
    3748    3752    3756    3760    3764    3768    3772    3776    3780    3784
    3788    3792    3796    3800    3804    3808    3812    3816    3820    3824
    3828    3832    3836    3840    3844    3848    3852    3856    3860    3864
    3868    3872    3876    3880    3884    3888    3892    3896    3900    3904
    3908    3912    3916    3920    3924    3928    3932    3936    3940    3944
    3948    3952    3956    3960    3964    3968    3972    3976    3980    3984
    3988    3992    3996    4000    4004    4008    4012    4016    4020    4024
    4028    4032    4036    4040    4044    4048    4052    4056    4060    4064
    4068    4072    4076    4080    4084    4088    4092    4096    4100    4104
    4108    4112    4116    4120    4124    4128    4132    4136    4140    4144
    4148    4152    4156    4160    4164    4168    4172    4176    4180    4184
    4188    4192    4196    4200    4204    4208    4212    4216    4220    4224
    4228    4232    4236    4240    4244    4248    4252    4256    4260    4264
    4268    4272    4276    4280    4284    4288    4292    4296    4300    4304
    4308    4312    4316    4320    4324    4328    4332    4336    4340    4344
    4348    4352    4356    4360    4364    4368    4372    4376    4380    4384
    4388    4392    4396    4400    4404    4408    4412    4416    4420    4424
    4428    4432    4436    4440    4444    4448    4452    4456    4460    4464
    4468    4472    4476    4480    4484    4488    4492    4496    4500    4504
    4508    4512    4516    4520    4524    4528    4532    4536    4540    4544
    4548    4552    4556    4560    4564    4568    4572    4576    4580    4584
    4588    4592    4596    4600    4604    4608    4612    4616    4620    4624
    4628    4632    4636    4640    4644    4648    4652    4656    4660    4664
    4668    4672    4676    4680    4684    4688    4692    4696    4700    4704
    4708    4712    4716    4720    4724    4728    4732    4736    4740    4744
    4748    4752    4756    4760    4764    4768    4772    4776    4780    4784
    4788    4792    4796    4800    4804    4808    4812    4816    4820    4824
    4828    4832    4836    4840    4844    4848    4852    4856    4860    4864
    4868    4872    4876    4880    4884    4888    4892    4896    4900    4904
    4908    4912    4916    4920    4924    4928    4932    4936    4940    4944
    4948    4952    4956    4960    4964    4968    4972    4976    4980    4984
    4988    4992    4996    5000    5004    5008    5012    5016    5020    5024
    5028    5032    5036    5040    5044    5048    5052    5056    5060    5064
    5068    5072    5076    5080    5084    5088    5092    5096    5100    5104
    5108    5112    5116    5120    5124    5128    5132    5136    5140    5144
    5148    5152    5156    5160    5164    5168    5172    5176    5180    5184
    5188    5192    5196    5200    5204    5208    5212    5216    5220    5224
    5228    5232    5236    5240    5244    5248    5252    5256    5260    5264
    5268    5272    5276    5280    5284    5288    5292    5296    5300    5304
    5308    5312    5316    5320    5324    5328    5332    5336    5340    5344
    5348    5352    5356    5360    5364    5368    5372    5376    5380    5384
    5388    5392    5396    5400    5404    5408    5412    5416    5420    5424
    5428    5432    5436    5440    5444    5448    5452    5456    5460    5464
    5468    5472    5476    5480    5484    5488    5492    5496    5500    5504
    5508    5512    5516    5520    5524    5528    5532    5536    5540    5544
    5548    5552    5556    5560    5564    5568    5572    5576    5580    5584
    5588    5592    5596    5600    5604    5608    5612    5616    5620    5624
    5628    5632    5636    5640    5644    5648    5652    5656    5660    5664
    5668    5672    5676    5680    5684    5688    5692    5696    5700    5704
    5708    5712    5716    5720    5724    5728    5732    5736    5740    5744
    5748    5752    5756    5760    5764    5768    5772    5776    5780    5784
    5788    5792    5796    5800    5804    5808    5812    5816    5820    5824
    5828    5832    5836    5840    5844    5848    5852    5856    5860    5864
    5868    5872    5876    5880    5884    5888    5892    5896    5900    5904
    5908    5912    5916    5920    5924    5928    5932    5936    5940    5944
    5948    5952    5956    5960    5964    5968    5972    5976    5980    5984
    5988    5992    5996    6000    6004    6008    6012    6016    6020    6024
    6028    6032    6036    6040    6044    6048    6052    6056    6060    6064
    6068    6072    6076    6080    6084    6088    6092    6096    6100    6104
    6108    6112    6116    6120    6124    6128    6132    6136    6140    6144
    6148    6152    6156    6160    6164    6168    6172    6176    6180    6184
    6188    6192    6196    6200    6204    6208    6212    6216    6220    6224
    6228    6232    6236    6240    6244    6248    6252    6256    6260    6264
    6268    6272    6276    6280    6284    6288    6292    6296    6300    6304
    6308    6312    6316    6320    6324    6328    6332    6336    6340    6344
    6348    6352    6356    6360    6364    6368    6372    6376    6380    6384
    6388    6392    6396    6400    6404    6408    6412    6416    6420    6424
    6428    6432    6436    6440    6444    6448    6452    6456    6460    6464
    6468    6472    6476    6480    6484    6488    6492    6496    6500    6504
    6508    6512    6516    6520    6524    6528    6532    6536    6540    6544
    6548    6552    6556    6560    6564    6568    6572    6576    6580    6584
    6588    6592    6596    6600    6604    6608    6612    6616    6620    6624
    6628    6632    6636    6640    6644    6648    6652    6656    6660    6664
    6668    6672    6676    6680    6684    6688    6692    6696    6700    6704
    6708    6712    6716    6720    6724    6728    6732    6736    6740    6744
    6748    6752    6756    6760    6764    6768    6772    6776    6780    6784
    6788    6792    6796    6800    6804    6808    6812    6816    6820    6824
    6828    6832    6836    6840    6844    6848    6852    6856    6860    6864
    6868    6872    6876    6880    6884    6888    6892    6896    6900    6904
    6908    6912    6916    6920    6924    6928    6932    6936    6940    6944
    6948    6952    6956    6960    6964    6968    6972    6976    6980    6984
    6988    6992    6996    7000    7004    7008    7012    7016    7020    7024
    7028    7032    7036    7040    7044    7048    7052    7056    7060    7064
    7068    7072    7076    7080    7084    7088    7092    7096    7100    7104
    7108    7112    7116    7120    7124    7128    7132    7136    7140    7144
    7148    7152    7156    7160    7164    7168    7172    7176    7180    7184
    7188    7192    7196    7200    7204    7208    7212    7216    7220    7224
    7228    7232    7236    7240    7244    7248    7252    7256    7260    7264
    7268    7272    7276    7280    7284    7288    7292    7296    7300    7304
    7308    7312    7316    7320    7324    7328    7332    7336    7340    7344
    7348    7352    7356    7360    7364    7368    7372    7376    7380    7384
    7388    7392    7396    7400    7404    7408    7412    7416    7420    7424
    7428    7432    7436    7440    7444    7448    7452    7456    7460    7464
    7468    7472    7476    7480    7484    7488    7492    7496    7500    7504
    7508    7512    7516    7520    7524    7528    7532    7536    7540    7544
    7548    7552    7556    7560    7564    7568    7572    7576    7580    7584
    7588    7592    7596    7600    7604    7608    7612    7616    7620    7624
    7628    7632    7636    7640    7644    7648    7652    7656    7660    7664
    7668    7672    7676    7680    7684    7688    7692    7696    7700    7704
    7708    7712    7716    7720    7724    7728    7732    7736    7740    7744
    7748    7752    7756    7760    7764    7768    7772    7776    7780    7784
    7788    7792    7796    7800    7804    7808    7812    7816    7820    7824
    7828    7832    7836    7840    7844    7848    7852    7856    7860    7864
    7868    7872    7876    7880    7884    7888    7892    7896    7900    7904
    7908    7912    7916    7920    7924    7928    7932    7936    7940    7944
    7948    7952    7956    7960    7964    7968    7972    7976    7980    7984
    7988    7992    7996    8000    8004    8008    8012    8016    8020    8024
    8028    8032    8036    8040    8044    8048    8052    8056    8060    8064
    8068    8072    8076    8080    8084    8088    8092    8096    8100    8104
    8108    8112    8116    8120    8124    8128    8132    8136    8140    8144
    8148    8152    8156    8160    8164    8168    8172    8176    8180    8184
    8188    8192    8196    8200    8204    8208    8212    8216    8220    8224
    8228    8232    8236    8240    8244    8248    8252    8256    8260    8264
    8268    8272    8276    8280    8284    8288    8292    8296    8300    8304
    8308    8312    8316    8320    8324    8328    8332    8336    8340    8344
    8348    8352    8356    8360    8364    8368    8372    8376    8380    8384
    8388    8392    8396    8400    8404    8408    8412    8416    8420    8424
    8428    8432    8436    8440    8444    8448    8452    8456    8460    8464
    8468    8472    8476    8480    8484    8488    8492    8496    8500    8504
    8508    8512    8516    8520    8524    8528    8532    8536    8540    8544
    8548    8552    8556    8560    8564    8568    8572    8576    8580    8584
    8588    8592    8596    8600    8604    8608    8612    8616    8620    8624
    8628    8632    8636    8640    8644    8648    8652    8656    8660    8664
    8668    8672    8676    8680    8684    8688    8692    8696    8700    8704
    8708    8712    8716    8720    8724    8728    8732    8736    8740    8744
    8748    8752
%FLAG BOND_FORCE_CONSTANT                                                       
%FORMAT(5E16.8)                                                                 
  5.53000000E+02  5.53000000E+02  5.53000000E+02  4.81770000E+02  3.32450000E+02
  3.66810000E+02  4.17790000E+02  3.56030000E+02  3.86240000E+02  3.45930000E+02
  3.45250000E+02  2.34850000E+02  5.90600000E+02  3.56200000E+02  5.27300000E+02
  3.53800000E+02  4.19720000E+02  2.81780000E+02
%FLAG BOND_EQUIL_VALUE                                                          
%FORMAT(5E16.8)                                                                 
  1.51360000E+00  1.25000000E-01  9.57200000E-01  1.00950000E+00  1.38300000E+00
  1.08210000E+00  1.31710000E+00  1.36290000E+00  1.37300000E+00  1.37130000E+00
  1.09620000E+00  1.52700000E+00  1.21900000E+00  1.37900000E+00  1.01300000E+00
  1.38100000E+00  1.31580000E+00  1.46870000E+00
%FLAG ANGLE_FORCE_CONSTANT                                                      
%FORMAT(5E16.8)                                                                 
  3.58000000E+01  4.79400000E+01  5.54300000E+01  7.65100000E+01  4.88900000E+01
  7.19900000E+01  8.60800000E+01  6.97000000E+01  8.27900000E+01  7.14500000E+01
  7.25300000E+01  7.64500000E+01  4.87000000E+01  4.36300000E+01  1.10300000E+02
  8.43000000E+01  1.13800000E+02  4.83000000E+01  6.66000000E+01  8.73500000E+01
  8.71000000E+01  1.10974000E+02  6.22000000E+01  6.57200000E+01  7.83600000E+01
%FLAG ANGLE_EQUIL_VALUE                                                         
%FORMAT(5E16.8)                                                                 
  1.88024401E+00  2.10888224E+00  2.18585129E+00  1.97257197E+00  2.18672396E+00
  1.90223517E+00  1.90502770E+00  2.05931487E+00  1.93557097E+00  1.94743921E+00
  2.11411823E+00  2.14501057E+00  2.05163542E+00  1.90153704E+00  2.14675590E+00
  2.01027109E+00  2.14762857E+00  2.08148056E+00  2.15146829E+00  1.83905422E+00
  1.96698691E+00  1.97623716E+00  2.11743436E+00  2.15007203E+00  2.16525640E+00
%FLAG DIHEDRAL_FORCE_CONSTANT                                                   
%FORMAT(5E16.8)                                                                 
  1.70000000E+00  4.00000000E+00  2.50000000E+00  4.75000000E+00  1.65000000E+00
  2.00000000E+00  4.03000000E+00  3.66000000E+00  0.00000000E+00  5.00000000E-01
  2.87500000E+00  1.10000000E+00  1.05000000E+01
%FLAG DIHEDRAL_PERIODICITY                                                      
%FORMAT(5E16.8)                                                                 
  2.00000000E+00  2.00000000E+00  2.00000000E+00  2.00000000E+00  2.00000000E+00
  1.00000000E+00  1.00000000E+00  2.00000000E+00  2.00000000E+00  2.00000000E+00
  2.00000000E+00  2.00000000E+00  2.00000000E+00
%FLAG DIHEDRAL_PHASE                                                            
%FORMAT(5E16.8)                                                                 
  3.14159400E+00  3.14159400E+00  3.14159400E+00  3.14159400E+00  3.14159400E+00
  0.00000000E+00  0.00000000E+00  3.14159400E+00  3.14159400E+00  3.14159400E+00
  3.14159400E+00  3.14159400E+00  3.14159400E+00
%FLAG SCEE_SCALE_FACTOR                                                         
%FORMAT(5E16.8)                                                                 
  1.20000000E+00  1.20000000E+00  1.20000000E+00  1.20000000E+00  1.20000000E+00
  1.20000000E+00  1.20000000E+00  1.20000000E+00  1.20000000E+00  1.20000000E+00
  1.20000000E+00  0.00000000E+00  0.00000000E+00
%FLAG SCNB_SCALE_FACTOR                                                         
%FORMAT(5E16.8)                                                                 
  2.00000000E+00  2.00000000E+00  2.00000000E+00  2.00000000E+00  2.00000000E+00
  2.00000000E+00  2.00000000E+00  2.00000000E+00  2.00000000E+00  2.00000000E+00
  2.00000000E+00  0.00000000E+00  0.00000000E+00
%FLAG SOLTY                                                                     
%FORMAT(5E16.8)                                                                 
  0.00000000E+00  0.00000000E+00  0.00000000E+00  0.00000000E+00  0.00000000E+00
  0.00000000E+00  0.00000000E+00  0.00000000E+00  0.00000000E+00  0.00000000E+00
  0.00000000E+00  0.00000000E+00  0.00000000E+00  0.00000000E+00  0.00000000E+00
  0.00000000E+00  0.00000000E+00
%FLAG LENNARD_JONES_ACOEF                                                       
%FORMAT(5E16.8)                                                                 
  7.95580953E+03  7.12925476E+05  9.33304478E+06  6.45887018E+04  2.63333256E+06
  3.76435470E+05  9.64632940E+04  3.21466829E+06  5.17507491E+05  6.96551276E+05
  9.52256395E+04  3.27992774E+06  5.17814271E+05  6.99381362E+05  7.01825028E+05
  1.20472290E+05  3.78467447E+06  6.30925504E+05  8.43969952E+05  8.48258258E+05
  1.02073671E+06  1.09323807E+05  3.46752909E+06  5.74782316E+05  7.69642101E+05
  7.73425391E+05  9.31115275E+05  8.49322032E+05  1.08967343E+05  3.93612430E+06
  6.04208667E+05  8.20152428E+05  8.22346035E+05  9.96191545E+05  9.08092643E+05
  9.62429652E+05  6.46877639E+01  2.40945743E+04  9.87857350E+02  1.71458823E+03
  1.65195713E+03  2.23577481E+03  2.01475241E+03  1.82491629E+03  1.34728399E-01
  8.32079463E+03  4.95785411E+05  5.68021765E+04  8.12662403E+04  8.07866982E+04
  1.00235148E+05  9.11435380E+04  9.33839501E+04  9.47421632E+01  7.94617769E+03
  4.95804190E+03  3.40883084E+05  3.59538577E+04  5.22195041E+04  5.17840911E+04
  6.46910138E+04  5.87815925E+04  5.96470418E+04  5.02830284E+01  4.88692384E+03
  2.97255425E+03  8.86723790E+04  3.30472238E+06  4.98028858E+05  6.78244843E+05
  6.79694051E+05  8.24615247E+05  7.51572712E+05  7.94862276E+05  1.45086460E+03
  7.64989916E+04  4.87482031E+04  6.56136207E+05  0.00000000E+00  0.00000000E+00
  0.00000000E+00  0.00000000E+00  0.00000000E+00  0.00000000E+00  0.00000000E+00
  0.00000000E+00  0.00000000E+00  0.00000000E+00  0.00000000E+00  0.00000000E+00
  0.00000000E+00  0.00000000E+00  0.00000000E+00  0.00000000E+00  0.00000000E+00
  0.00000000E+00  0.00000000E+00  0.00000000E+00  0.00000000E+00  0.00000000E+00
  0.00000000E+00  0.00000000E+00  0.00000000E+00  0.00000000E+00  0.00000000E+00
%FLAG LENNARD_JONES_BCOEF                                                       
%FORMAT(5E16.8)                                                                 
  7.32135689E+01  3.55508807E+02  6.59809978E+02  2.01385896E+02  6.59602869E+02
  4.69350655E+02  2.23105344E+02  6.60656814E+02  4.98871431E+02  5.24668528E+02
  2.31437466E+02  6.96735215E+02  5.21008860E+02  5.48900066E+02  5.74088001E+02
  2.54822614E+02  7.32634819E+02  5.62969425E+02  5.90251928E+02  6.17825399E+02
  6.63431737E+02  2.34635906E+02  6.77838234E+02  5.19385932E+02  5.44830041E+02
  5.70234696E+02  6.12468585E+02  5.65406768E+02  2.84316332E+02  8.76530306E+02
  6.46321327E+02  6.82622272E+02  7.13654906E+02  7.68900328E+02  7.09588248E+02
  8.86629877E+02  3.25874788E+00  3.22610300E+01  1.22938581E+01  1.46824710E+01
  1.50468782E+01  1.71355763E+01  1.57231024E+01  1.81620725E+01  7.34107347E-02
  4.43851741E+01  1.75744323E+02  1.11953944E+02  1.21392023E+02  1.26366740E+02
  1.37787728E+02  1.27000718E+02  1.56025608E+02  2.33785449E+00  2.57122925E+01
  3.21366985E+01  1.36687183E+02  8.35449674E+01  9.12729468E+01  9.48968218E+01
  1.03827676E+02  9.56653235E+01  1.16962018E+02  1.59752321E+00  1.89134207E+01
  1.38359132E+01  2.42333872E+02  7.58868174E+02  5.54432373E+02  5.86533377E+02
  6.13033212E+02  6.60983496E+02  6.09948479E+02  7.61325055E+02  1.53011364E+01
  1.33430138E+02  9.99070234E+01  6.53563058E+02  0.00000000E+00  0.00000000E+00
  0.00000000E+00  0.00000000E+00  0.00000000E+00  0.00000000E+00  0.00000000E+00
  0.00000000E+00  0.00000000E+00  0.00000000E+00  0.00000000E+00  0.00000000E+00
  0.00000000E+00  0.00000000E+00  0.00000000E+00  0.00000000E+00  0.00000000E+00
  0.00000000E+00  0.00000000E+00  0.00000000E+00  0.00000000E+00  0.00000000E+00
  0.00000000E+00  0.00000000E+00  0.00000000E+00  0.00000000E+00  0.00000000E+00
%FLAG BONDS_INC_HYDROGEN                                                        
%FORMAT(10I8)                                                                   
      96      99       1      93      96       3      93      99       3     108
     111       1     105     108       3     105     111       3     120     123
       1     117     120       3     117     123       3     132     135       1
     129     132       3     129     135       3     144     147       1     141
     144       3     141     147       3     156     159       1     153     156
       3     153     159       3     168     171       1     165     168       3
     165     171       3     180     183       1     177     180       3     177
     183       3     192     195       1     189     192       3     189     195
       3     204     207       1     201     204       3     201     207       3
     216     219       1     213     216       3     213     219       3     228
     231       1     225     228       3     225     231       3     240     243
       1     237     240       3     237     243       3     252     255       1
     249     252       3     249     255       3     264     267       1     261
     264       3     261     267       3     276     279       1     273     276
       3     273     279       3     288     291       1     285     288       3
     285     291       3     300     303       1     297     300       3     297
     303       3     312     315       1     309     312       3     309     315
       3     324     327       1     321     324       3     321     327       3
     336     339       1     333     336       3     333     339       3     348
     351       1     345     348       3     345     351       3     360     363
       1     357     360       3     357     363       3     372     375       1
     369     372       3     369     375       3     384     387       1     381
     384       3     381     387       3     396     399       1     393     396
       3     393     399       3     408     411       1     405     408       3
     405     411       3     420     423       1     417     420       3     417
     423       3     432     435       1     429     432       3     429     435
       3     444     447       1     441     444       3     441     447       3
     456     459       1     453     456       3     453     459       3     468
     471       1     465     468       3     465     471       3     480     483
       1     477     480       3     477     483       3     492     495       1
     489     492       3     489     495       3     504     507       1     501
     504       3     501     507       3     516     519       1     513     516
       3     513     519       3     528     531       1     525     528       3
     525     531       3     540     543       1     537     540       3     537
     543       3     552     555       1     549     552       3     549     555
       3     564     567       1     561     564       3     561     567       3
     576     579       1     573     576       3     573     579       3     588
     591       1     585     588       3     585     591       3     600     603
       1     597     600       3     597     603       3     612     615       1
     609     612       3     609     615       3     624     627       1     621
     624       3     621     627       3     636     639       1     633     636
       3     633     639       3     648     651       1     645     648       3
     645     651       3     660     663       1     657     660       3     657
     663       3     672     675       1     669     672       3     669     675
       3     684     687       1     681     684       3     681     687       3
     696     699       1     693     696       3     693     699       3     708
     711       1     705     708       3     705     711       3     720     723
       1     717     720       3     717     723       3     732     735       1
     729     732       3     729     735       3     744     747       1     741
     744       3     741     747       3     756     759       1     753     756
       3     753     759       3     768     771       1     765     768       3
     765     771       3     780     783       1     777     780       3     777
     783       3     792     795       1     789     792       3     789     795
       3     804     807       1     801     804       3     801     807       3
     816     819       1     813     816       3     813     819       3     828
     831       1     825     828       3     825     831       3     840     843
       1     837     840       3     837     843       3     852     855       1
     849     852       3     849     855       3     864     867       1     861
     864       3     861     867       3     876     879       1     873     876
       3     873     879       3     888     891       1     885     888       3
     885     891       3     900     903       1     897     900       3     897
     903       3     912     915       1     909     912       3     909     915
       3     924     927       1     921     924       3     921     927       3
     936     939       1     933     936       3     933     939       3     948
     951       1     945     948       3     945     951       3     960     963
       1     957     960       3     957     963       3     972     975       1
     969     972       3     969     975       3     984     987       1     981
     984       3     981     987       3     996     999       1     993     996
       3     993     999       3    1008    1011       1    1005    1008       3
    1005    1011       3    1020    1023       1    1017    1020       3    1017
    1023       3    1032    1035       1    1029    1032       3    1029    1035
       3    1044    1047       1    1041    1044       3    1041    1047       3
    1056    1059       1    1053    1056       3    1053    1059       3    1068
    1071       1    1065    1068       3    1065    1071       3    1080    1083
       1    1077    1080       3    1077    1083       3    1092    1095       1
    1089    1092       3    1089    1095       3    1104    1107       1    1101
    1104       3    1101    1107       3    1116    1119       1    1113    1116
       3    1113    1119       3    1128    1131       1    1125    1128       3
    1125    1131       3    1140    1143       1    1137    1140       3    1137
    1143       3    1152    1155       1    1149    1152       3    1149    1155
       3    1164    1167       1    1161    1164       3    1161    1167       3
    1176    1179       1    1173    1176       3    1173    1179       3    1188
    1191       1    1185    1188       3    1185    1191       3    1200    1203
       1    1197    1200       3    1197    1203       3    1212    1215       1
    1209    1212       3    1209    1215       3    1224    1227       1    1221
    1224       3    1221    1227       3    1236    1239       1    1233    1236
       3    1233    1239       3    1248    1251       1    1245    1248       3
    1245    1251       3    1260    1263       1    1257    1260       3    1257
    1263       3    1272    1275       1    1269    1272       3    1269    1275
       3    1284    1287       1    1281    1284       3    1281    1287       3
    1296    1299       1    1293    1296       3    1293    1299       3    1308
    1311       1    1305    1308       3    1305    1311       3    1320    1323
       1    1317    1320       3    1317    1323       3    1332    1335       1
    1329    1332       3    1329    1335       3    1344    1347       1    1341
    1344       3    1341    1347       3    1356    1359       1    1353    1356
       3    1353    1359       3    1368    1371       1    1365    1368       3
    1365    1371       3    1380    1383       1    1377    1380       3    1377
    1383       3    1392    1395       1    1389    1392       3    1389    1395
       3    1404    1407       1    1401    1404       3    1401    1407       3
    1416    1419       1    1413    1416       3    1413    1419       3    1428
    1431       1    1425    1428       3    1425    1431       3    1440    1443
       1    1437    1440       3    1437    1443       3    1452    1455       1
    1449    1452       3    1449    1455       3    1464    1467       1    1461
    1464       3    1461    1467       3    1476    1479       1    1473    1476
       3    1473    1479       3    1488    1491       1    1485    1488       3
    1485    1491       3    1500    1503       1    1497    1500       3    1497
    1503       3    1512    1515       1    1509    1512       3    1509    1515
       3    1524    1527       1    1521    1524       3    1521    1527       3
    1536    1539       1    1533    1536       3    1533    1539       3    1548
    1551       1    1545    1548       3    1545    1551       3    1560    1563
       1    1557    1560       3    1557    1563       3    1572    1575       1
    1569    1572       3    1569    1575       3    1584    1587       1    1581
    1584       3    1581    1587       3    1596    1599       1    1593    1596
       3    1593    1599       3    1608    1611       1    1605    1608       3
    1605    1611       3    1620    1623       1    1617    1620       3    1617
    1623       3    1632    1635       1    1629    1632       3    1629    1635
       3    1644    1647       1    1641    1644       3    1641    1647       3
    1656    1659       1    1653    1656       3    1653    1659       3    1668
    1671       1    1665    1668       3    1665    1671       3    1680    1683
       1    1677    1680       3    1677    1683       3    1692    1695       1
    1689    1692       3    1689    1695       3    1704    1707       1    1701
    1704       3    1701    1707       3    1716    1719       1    1713    1716
       3    1713    1719       3    1728    1731       1    1725    1728       3
    1725    1731       3    1740    1743       1    1737    1740       3    1737
    1743       3    1752    1755       1    1749    1752       3    1749    1755
       3    1764    1767       1    1761    1764       3    1761    1767       3
    1776    1779       1    1773    1776       3    1773    1779       3    1788
    1791       1    1785    1788       3    1785    1791       3    1800    1803
       1    1797    1800       3    1797    1803       3    1812    1815       1
    1809    1812       3    1809    1815       3    1824    1827       1    1821
    1824       3    1821    1827       3    1836    1839       1    1833    1836
       3    1833    1839       3    1848    1851       1    1845    1848       3
    1845    1851       3    1860    1863       1    1857    1860       3    1857
    1863       3    1872    1875       1    1869    1872       3    1869    1875
       3    1884    1887       1    1881    1884       3    1881    1887       3
    1896    1899       1    1893    1896       3    1893    1899       3    1908
    1911       1    1905    1908       3    1905    1911       3    1920    1923
       1    1917    1920       3    1917    1923       3    1932    1935       1
    1929    1932       3    1929    1935       3    1944    1947       1    1941
    1944       3    1941    1947       3    1956    1959       1    1953    1956
       3    1953    1959       3    1968    1971       1    1965    1968       3
    1965    1971       3    1980    1983       1    1977    1980       3    1977
    1983       3    1992    1995       1    1989    1992       3    1989    1995
       3    2004    2007       1    2001    2004       3    2001    2007       3
    2016    2019       1    2013    2016       3    2013    2019       3    2028
    2031       1    2025    2028       3    2025    2031       3    2040    2043
       1    2037    2040       3    2037    2043       3    2052    2055       1
    2049    2052       3    2049    2055       3    2064    2067       1    2061
    2064       3    2061    2067       3    2076    2079       1    2073    2076
       3    2073    2079       3    2088    2091       1    2085    2088       3
    2085    2091       3    2100    2103       1    2097    2100       3    2097
    2103       3    2112    2115       1    2109    2112       3    2109    2115
       3    2124    2127       1    2121    2124       3    2121    2127       3
    2136    2139       1    2133    2136       3    2133    2139       3    2148
    2151       1    2145    2148       3    2145    2151       3    2160    2163
       1    2157    2160       3    2157    2163       3    2172    2175       1
    2169    2172       3    2169    2175       3    2184    2187       1    2181
    2184       3    2181    2187       3    2196    2199       1    2193    2196
       3    2193    2199       3    2208    2211       1    2205    2208       3
    2205    2211       3    2220    2223       1    2217    2220       3    2217
    2223       3    2232    2235       1    2229    2232       3    2229    2235
       3    2244    2247       1    2241    2244       3    2241    2247       3
    2256    2259       1    2253    2256       3    2253    2259       3    2268
    2271       1    2265    2268       3    2265    2271       3    2280    2283
       1    2277    2280       3    2277    2283       3    2292    2295       1
    2289    2292       3    2289    2295       3    2304    2307       1    2301
    2304       3    2301    2307       3    2316    2319       1    2313    2316
       3    2313    2319       3    2328    2331       1    2325    2328       3
    2325    2331       3    2340    2343       1    2337    2340       3    2337
    2343       3    2352    2355       1    2349    2352       3    2349    2355
       3    2364    2367       1    2361    2364       3    2361    2367       3
    2376    2379       1    2373    2376       3    2373    2379       3    2388
    2391       1    2385    2388       3    2385    2391       3    2400    2403
       1    2397    2400       3    2397    2403       3    2412    2415       1
    2409    2412       3    2409    2415       3    2424    2427       1    2421
    2424       3    2421    2427       3    2436    2439       1    2433    2436
       3    2433    2439       3    2448    2451       1    2445    2448       3
    2445    2451       3    2460    2463       1    2457    2460       3    2457
    2463       3    2472    2475       1    2469    2472       3    2469    2475
       3    2484    2487       1    2481    2484       3    2481    2487       3
    2496    2499       1    2493    2496       3    2493    2499       3    2508
    2511       1    2505    2508       3    2505    2511       3    2520    2523
       1    2517    2520       3    2517    2523       3    2532    2535       1
    2529    2532       3    2529    2535       3    2544    2547       1    2541
    2544       3    2541    2547       3    2556    2559       1    2553    2556
       3    2553    2559       3    2568    2571       1    2565    2568       3
    2565    2571       3    2580    2583       1    2577    2580       3    2577
    2583       3    2592    2595       1    2589    2592       3    2589    2595
       3    2604    2607       1    2601    2604       3    2601    2607       3
    2616    2619       1    2613    2616       3    2613    2619       3    2628
    2631       1    2625    2628       3    2625    2631       3    2640    2643
       1    2637    2640       3    2637    2643       3    2652    2655       1
    2649    2652       3    2649    2655       3    2664    2667       1    2661
    2664       3    2661    2667       3    2676    2679       1    2673    2676
       3    2673    2679       3    2688    2691       1    2685    2688       3
    2685    2691       3    2700    2703       1    2697    2700       3    2697
    2703       3    2712    2715       1    2709    2712       3    2709    2715
       3    2724    2727       1    2721    2724       3    2721    2727       3
    2736    2739       1    2733    2736       3    2733    2739       3    2748
    2751       1    2745    2748       3    2745    2751       3    2760    2763
       1    2757    2760       3    2757    2763       3    2772    2775       1
    2769    2772       3    2769    2775       3    2784    2787       1    2781
    2784       3    2781    2787       3    2796    2799       1    2793    2796
       3    2793    2799       3    2808    2811       1    2805    2808       3
    2805    2811       3    2820    2823       1    2817    2820       3    2817
    2823       3    2832    2835       1    2829    2832       3    2829    2835
       3    2844    2847       1    2841    2844       3    2841    2847       3
    2856    2859       1    2853    2856       3    2853    2859       3    2868
    2871       1    2865    2868       3    2865    2871       3    2880    2883
       1    2877    2880       3    2877    2883       3    2892    2895       1
    2889    2892       3    2889    2895       3    2904    2907       1    2901
    2904       3    2901    2907       3    2916    2919       1    2913    2916
       3    2913    2919       3    2928    2931       1    2925    2928       3
    2925    2931       3    2940    2943       1    2937    2940       3    2937
    2943       3    2952    2955       1    2949    2952       3    2949    2955
       3    2964    2967       1    2961    2964       3    2961    2967       3
    2976    2979       1    2973    2976       3    2973    2979       3    2988
    2991       1    2985    2988       3    2985    2991       3    3000    3003
       1    2997    3000       3    2997    3003       3    3012    3015       1
    3009    3012       3    3009    3015       3    3024    3027       1    3021
    3024       3    3021    3027       3    3036    3039       1    3033    3036
       3    3033    3039       3    3048    3051       1    3045    3048       3
    3045    3051       3    3060    3063       1    3057    3060       3    3057
    3063       3    3072    3075       1    3069    3072       3    3069    3075
       3    3084    3087       1    3081    3084       3    3081    3087       3
    3096    3099       1    3093    3096       3    3093    3099       3    3108
    3111       1    3105    3108       3    3105    3111       3    3120    3123
       1    3117    3120       3    3117    3123       3    3132    3135       1
    3129    3132       3    3129    3135       3    3144    3147       1    3141
    3144       3    3141    3147       3    3156    3159       1    3153    3156
       3    3153    3159       3    3168    3171       1    3165    3168       3
    3165    3171       3    3180    3183       1    3177    3180       3    3177
    3183       3    3192    3195       1    3189    3192       3    3189    3195
       3    3204    3207       1    3201    3204       3    3201    3207       3
    3216    3219       1    3213    3216       3    3213    3219       3    3228
    3231       1    3225    3228       3    3225    3231       3    3240    3243
       1    3237    3240       3    3237    3243       3    3252    3255       1
    3249    3252       3    3249    3255       3    3264    3267       1    3261
    3264       3    3261    3267       3    3276    3279       1    3273    3276
       3    3273    3279       3    3288    3291       1    3285    3288       3
    3285    3291       3    3300    3303       1    3297    3300       3    3297
    3303       3    3312    3315       1    3309    3312       3    3309    3315
       3    3324    3327       1    3321    3324       3    3321    3327       3
    3336    3339       1    3333    3336       3    3333    3339       3    3348
    3351       1    3345    3348       3    3345    3351       3    3360    3363
       1    3357    3360       3    3357    3363       3    3372    3375       1
    3369    3372       3    3369    3375       3    3384    3387       1    3381
    3384       3    3381    3387       3    3396    3399       1    3393    3396
       3    3393    3399       3    3408    3411       1    3405    3408       3
    3405    3411       3    3420    3423       1    3417    3420       3    3417
    3423       3    3432    3435       1    3429    3432       3    3429    3435
       3    3444    3447       1    3441    3444       3    3441    3447       3
    3456    3459       1    3453    3456       3    3453    3459       3    3468
    3471       1    3465    3468       3    3465    3471       3    3480    3483
       1    3477    3480       3    3477    3483       3    3492    3495       1
    3489    3492       3    3489    3495       3    3504    3507       1    3501
    3504       3    3501    3507       3    3516    3519       1    3513    3516
       3    3513    3519       3    3528    3531       1    3525    3528       3
    3525    3531       3    3540    3543       1    3537    3540       3    3537
    3543       3    3552    3555       1    3549    3552       3    3549    3555
       3    3564    3567       1    3561    3564       3    3561    3567       3
    3576    3579       1    3573    3576       3    3573    3579       3    3588
    3591       1    3585    3588       3    3585    3591       3    3600    3603
       1    3597    3600       3    3597    3603       3    3612    3615       1
    3609    3612       3    3609    3615       3    3624    3627       1    3621
    3624       3    3621    3627       3    3636    3639       1    3633    3636
       3    3633    3639       3    3648    3651       1    3645    3648       3
    3645    3651       3    3660    3663       1    3657    3660       3    3657
    3663       3    3672    3675       1    3669    3672       3    3669    3675
       3    3684    3687       1    3681    3684       3    3681    3687       3
    3696    3699       1    3693    3696       3    3693    3699       3    3708
    3711       1    3705    3708       3    3705    3711       3    3720    3723
       1    3717    3720       3    3717    3723       3    3732    3735       1
    3729    3732       3    3729    3735       3    3744    3747       1    3741
    3744       3    3741    3747       3    3756    3759       1    3753    3756
       3    3753    3759       3    3768    3771       1    3765    3768       3
    3765    3771       3    3780    3783       1    3777    3780       3    3777
    3783       3    3792    3795       1    3789    3792       3    3789    3795
       3    3804    3807       1    3801    3804       3    3801    3807       3
    3816    3819       1    3813    3816       3    3813    3819       3    3828
    3831       1    3825    3828       3    3825    3831       3    3840    3843
       1    3837    3840       3    3837    3843       3    3852    3855       1
    3849    3852       3    3849    3855       3    3864    3867       1    3861
    3864       3    3861    3867       3    3876    3879       1    3873    3876
       3    3873    3879       3    3888    3891       1    3885    3888       3
    3885    3891       3    3900    3903       1    3897    3900       3    3897
    3903       3    3912    3915       1    3909    3912       3    3909    3915
       3    3924    3927       1    3921    3924       3    3921    3927       3
    3936    3939       1    3933    3936       3    3933    3939       3    3948
    3951       1    3945    3948       3    3945    3951       3    3960    3963
       1    3957    3960       3    3957    3963       3    3972    3975       1
    3969    3972       3    3969    3975       3    3984    3987       1    3981
    3984       3    3981    3987       3    3996    3999       1    3993    3996
       3    3993    3999       3    4008    4011       1    4005    4008       3
    4005    4011       3    4020    4023       1    4017    4020       3    4017
    4023       3    4032    4035       1    4029    4032       3    4029    4035
       3    4044    4047       1    4041    4044       3    4041    4047       3
    4056    4059       1    4053    4056       3    4053    4059       3    4068
    4071       1    4065    4068       3    4065    4071       3    4080    4083
       1    4077    4080       3    4077    4083       3    4092    4095       1
    4089    4092       3    4089    4095       3    4104    4107       1    4101
    4104       3    4101    4107       3    4116    4119       1    4113    4116
       3    4113    4119       3    4128    4131       1    4125    4128       3
    4125    4131       3    4140    4143       1    4137    4140       3    4137
    4143       3    4152    4155       1    4149    4152       3    4149    4155
       3    4164    4167       1    4161    4164       3    4161    4167       3
    4176    4179       1    4173    4176       3    4173    4179       3    4188
    4191       1    4185    4188       3    4185    4191       3    4200    4203
       1    4197    4200       3    4197    4203       3    4212    4215       1
    4209    4212       3    4209    4215       3    4224    4227       1    4221
    4224       3    4221    4227       3    4236    4239       1    4233    4236
       3    4233    4239       3    4248    4251       1    4245    4248       3
    4245    4251       3    4260    4263       1    4257    4260       3    4257
    4263       3    4272    4275       1    4269    4272       3    4269    4275
       3    4284    4287       1    4281    4284       3    4281    4287       3
    4296    4299       1    4293    4296       3    4293    4299       3    4308
    4311       1    4305    4308       3    4305    4311       3    4320    4323
       1    4317    4320       3    4317    4323       3    4332    4335       1
    4329    4332       3    4329    4335       3    4344    4347       1    4341
    4344       3    4341    4347       3    4356    4359       1    4353    4356
       3    4353    4359       3    4368    4371       1    4365    4368       3
    4365    4371       3    4380    4383       1    4377    4380       3    4377
    4383       3    4392    4395       1    4389    4392       3    4389    4395
       3    4404    4407       1    4401    4404       3    4401    4407       3
    4416    4419       1    4413    4416       3    4413    4419       3    4428
    4431       1    4425    4428       3    4425    4431       3    4440    4443
       1    4437    4440       3    4437    4443       3    4452    4455       1
    4449    4452       3    4449    4455       3    4464    4467       1    4461
    4464       3    4461    4467       3    4476    4479       1    4473    4476
       3    4473    4479       3    4488    4491       1    4485    4488       3
    4485    4491       3    4500    4503       1    4497    4500       3    4497
    4503       3    4512    4515       1    4509    4512       3    4509    4515
       3    4524    4527       1    4521    4524       3    4521    4527       3
    4536    4539       1    4533    4536       3    4533    4539       3    4548
    4551       1    4545    4548       3    4545    4551       3    4560    4563
       1    4557    4560       3    4557    4563       3    4572    4575       1
    4569    4572       3    4569    4575       3    4584    4587       1    4581
    4584       3    4581    4587       3    4596    4599       1    4593    4596
       3    4593    4599       3    4608    4611       1    4605    4608       3
    4605    4611       3    4620    4623       1    4617    4620       3    4617
    4623       3    4632    4635       1    4629    4632       3    4629    4635
       3    4644    4647       1    4641    4644       3    4641    4647       3
    4656    4659       1    4653    4656       3    4653    4659       3    4668
    4671       1    4665    4668       3    4665    4671       3    4680    4683
       1    4677    4680       3    4677    4683       3    4692    4695       1
    4689    4692       3    4689    4695       3    4704    4707       1    4701
    4704       3    4701    4707       3    4716    4719       1    4713    4716
       3    4713    4719       3    4728    4731       1    4725    4728       3
    4725    4731       3    4740    4743       1    4737    4740       3    4737
    4743       3    4752    4755       1    4749    4752       3    4749    4755
       3    4764    4767       1    4761    4764       3    4761    4767       3
    4776    4779       1    4773    4776       3    4773    4779       3    4788
    4791       1    4785    4788       3    4785    4791       3    4800    4803
       1    4797    4800       3    4797    4803       3    4812    4815       1
    4809    4812       3    4809    4815       3    4824    4827       1    4821
    4824       3    4821    4827       3    4836    4839       1    4833    4836
       3    4833    4839       3    4848    4851       1    4845    4848       3
    4845    4851       3    4860    4863       1    4857    4860       3    4857
    4863       3    4872    4875       1    4869    4872       3    4869    4875
       3    4884    4887       1    4881    4884       3    4881    4887       3
    4896    4899       1    4893    4896       3    4893    4899       3    4908
    4911       1    4905    4908       3    4905    4911       3    4920    4923
       1    4917    4920       3    4917    4923       3    4932    4935       1
    4929    4932       3    4929    4935       3    4944    4947       1    4941
    4944       3    4941    4947       3    4956    4959       1    4953    4956
       3    4953    4959       3    4968    4971       1    4965    4968       3
    4965    4971       3    4980    4983       1    4977    4980       3    4977
    4983       3    4992    4995       1    4989    4992       3    4989    4995
       3    5004    5007       1    5001    5004       3    5001    5007       3
    5016    5019       1    5013    5016       3    5013    5019       3    5028
    5031       1    5025    5028       3    5025    5031       3    5040    5043
       1    5037    5040       3    5037    5043       3    5052    5055       1
    5049    5052       3    5049    5055       3    5064    5067       1    5061
    5064       3    5061    5067       3    5076    5079       1    5073    5076
       3    5073    5079       3    5088    5091       1    5085    5088       3
    5085    5091       3    5100    5103       1    5097    5100       3    5097
    5103       3    5112    5115       1    5109    5112       3    5109    5115
       3    5124    5127       1    5121    5124       3    5121    5127       3
    5136    5139       1    5133    5136       3    5133    5139       3    5148
    5151       1    5145    5148       3    5145    5151       3    5160    5163
       1    5157    5160       3    5157    5163       3    5172    5175       1
    5169    5172       3    5169    5175       3    5184    5187       1    5181
    5184       3    5181    5187       3    5196    5199       1    5193    5196
       3    5193    5199       3    5208    5211       1    5205    5208       3
    5205    5211       3    5220    5223       1    5217    5220       3    5217
    5223       3    5232    5235       1    5229    5232       3    5229    5235
       3    5244    5247       1    5241    5244       3    5241    5247       3
    5256    5259       1    5253    5256       3    5253    5259       3    5268
    5271       1    5265    5268       3    5265    5271       3    5280    5283
       1    5277    5280       3    5277    5283       3    5292    5295       1
    5289    5292       3    5289    5295       3    5304    5307       1    5301
    5304       3    5301    5307       3    5316    5319       1    5313    5316
       3    5313    5319       3    5328    5331       1    5325    5328       3
    5325    5331       3    5340    5343       1    5337    5340       3    5337
    5343       3    5352    5355       1    5349    5352       3    5349    5355
       3    5364    5367       1    5361    5364       3    5361    5367       3
    5376    5379       1    5373    5376       3    5373    5379       3    5388
    5391       1    5385    5388       3    5385    5391       3    5400    5403
       1    5397    5400       3    5397    5403       3    5412    5415       1
    5409    5412       3    5409    5415       3    5424    5427       1    5421
    5424       3    5421    5427       3    5436    5439       1    5433    5436
       3    5433    5439       3    5448    5451       1    5445    5448       3
    5445    5451       3    5460    5463       1    5457    5460       3    5457
    5463       3    5472    5475       1    5469    5472       3    5469    5475
       3    5484    5487       1    5481    5484       3    5481    5487       3
    5496    5499       1    5493    5496       3    5493    5499       3    5508
    5511       1    5505    5508       3    5505    5511       3    5520    5523
       1    5517    5520       3    5517    5523       3    5532    5535       1
    5529    5532       3    5529    5535       3    5544    5547       1    5541
    5544       3    5541    5547       3    5556    5559       1    5553    5556
       3    5553    5559       3    5568    5571       1    5565    5568       3
    5565    5571       3    5580    5583       1    5577    5580       3    5577
    5583       3    5592    5595       1    5589    5592       3    5589    5595
       3    5604    5607       1    5601    5604       3    5601    5607       3
    5616    5619       1    5613    5616       3    5613    5619       3    5628
    5631       1    5625    5628       3    5625    5631       3    5640    5643
       1    5637    5640       3    5637    5643       3    5652    5655       1
    5649    5652       3    5649    5655       3    5664    5667       1    5661
    5664       3    5661    5667       3    5676    5679       1    5673    5676
       3    5673    5679       3    5688    5691       1    5685    5688       3
    5685    5691       3    5700    5703       1    5697    5700       3    5697
    5703       3    5712    5715       1    5709    5712       3    5709    5715
       3    5724    5727       1    5721    5724       3    5721    5727       3
    5736    5739       1    5733    5736       3    5733    5739       3    5748
    5751       1    5745    5748       3    5745    5751       3    5760    5763
       1    5757    5760       3    5757    5763       3    5772    5775       1
    5769    5772       3    5769    5775       3    5784    5787       1    5781
    5784       3    5781    5787       3    5796    5799       1    5793    5796
       3    5793    5799       3    5808    5811       1    5805    5808       3
    5805    5811       3    5820    5823       1    5817    5820       3    5817
    5823       3    5832    5835       1    5829    5832       3    5829    5835
       3    5844    5847       1    5841    5844       3    5841    5847       3
    5856    5859       1    5853    5856       3    5853    5859       3    5868
    5871       1    5865    5868       3    5865    5871       3    5880    5883
       1    5877    5880       3    5877    5883       3    5892    5895       1
    5889    5892       3    5889    5895       3    5904    5907       1    5901
    5904       3    5901    5907       3    5916    5919       1    5913    5916
       3    5913    5919       3    5928    5931       1    5925    5928       3
    5925    5931       3    5940    5943       1    5937    5940       3    5937
    5943       3    5952    5955       1    5949    5952       3    5949    5955
       3    5964    5967       1    5961    5964       3    5961    5967       3
    5976    5979       1    5973    5976       3    5973    5979       3    5988
    5991       1    5985    5988       3    5985    5991       3    6000    6003
       1    5997    6000       3    5997    6003       3    6012    6015       1
    6009    6012       3    6009    6015       3    6024    6027       1    6021
    6024       3    6021    6027       3    6036    6039       1    6033    6036
       3    6033    6039       3    6048    6051       1    6045    6048       3
    6045    6051       3    6060    6063       1    6057    6060       3    6057
    6063       3    6072    6075       1    6069    6072       3    6069    6075
       3    6084    6087       1    6081    6084       3    6081    6087       3
    6096    6099       1    6093    6096       3    6093    6099       3    6108
    6111       1    6105    6108       3    6105    6111       3    6120    6123
       1    6117    6120       3    6117    6123       3    6132    6135       1
    6129    6132       3    6129    6135       3    6144    6147       1    6141
    6144       3    6141    6147       3    6156    6159       1    6153    6156
       3    6153    6159       3    6168    6171       1    6165    6168       3
    6165    6171       3    6180    6183       1    6177    6180       3    6177
    6183       3    6192    6195       1    6189    6192       3    6189    6195
       3    6204    6207       1    6201    6204       3    6201    6207       3
    6216    6219       1    6213    6216       3    6213    6219       3    6228
    6231       1    6225    6228       3    6225    6231       3    6240    6243
       1    6237    6240       3    6237    6243       3    6252    6255       1
    6249    6252       3    6249    6255       3    6264    6267       1    6261
    6264       3    6261    6267       3    6276    6279       1    6273    6276
       3    6273    6279       3    6288    6291       1    6285    6288       3
    6285    6291       3    6300    6303       1    6297    6300       3    6297
    6303       3    6312    6315       1    6309    6312       3    6309    6315
       3    6324    6327       1    6321    6324       3    6321    6327       3
    6336    6339       1    6333    6336       3    6333    6339       3    6348
    6351       1    6345    6348       3    6345    6351       3    6360    6363
       1    6357    6360       3    6357    6363       3    6372    6375       1
    6369    6372       3    6369    6375       3    6384    6387       1    6381
    6384       3    6381    6387       3    6396    6399       1    6393    6396
       3    6393    6399       3    6408    6411       1    6405    6408       3
    6405    6411       3    6420    6423       1    6417    6420       3    6417
    6423       3    6432    6435       1    6429    6432       3    6429    6435
       3    6444    6447       1    6441    6444       3    6441    6447       3
    6456    6459       1    6453    6456       3    6453    6459       3    6468
    6471       1    6465    6468       3    6465    6471       3    6480    6483
       1    6477    6480       3    6477    6483       3    6492    6495       1
    6489    6492       3    6489    6495       3    6504    6507       1    6501
    6504       3    6501    6507       3    6516    6519       1    6513    6516
       3    6513    6519       3    6528    6531       1    6525    6528       3
    6525    6531       3    6540    6543       1    6537    6540       3    6537
    6543       3    6552    6555       1    6549    6552       3    6549    6555
       3    6564    6567       1    6561    6564       3    6561    6567       3
    6576    6579       1    6573    6576       3    6573    6579       3    6588
    6591       1    6585    6588       3    6585    6591       3    6600    6603
       1    6597    6600       3    6597    6603       3    6612    6615       1
    6609    6612       3    6609    6615       3    6624    6627       1    6621
    6624       3    6621    6627       3    6636    6639       1    6633    6636
       3    6633    6639       3    6648    6651       1    6645    6648       3
    6645    6651       3    6660    6663       1    6657    6660       3    6657
    6663       3    6672    6675       1    6669    6672       3    6669    6675
       3    6684    6687       1    6681    6684       3    6681    6687       3
    6696    6699       1    6693    6696       3    6693    6699       3    6708
    6711       1    6705    6708       3    6705    6711       3    6720    6723
       1    6717    6720       3    6717    6723       3    6732    6735       1
    6729    6732       3    6729    6735       3    6744    6747       1    6741
    6744       3    6741    6747       3    6756    6759       1    6753    6756
       3    6753    6759       3    6768    6771       1    6765    6768       3
    6765    6771       3    6780    6783       1    6777    6780       3    6777
    6783       3    6792    6795       1    6789    6792       3    6789    6795
       3    6804    6807       1    6801    6804       3    6801    6807       3
    6816    6819       1    6813    6816       3    6813    6819       3    6828
    6831       1    6825    6828       3    6825    6831       3    6840    6843
       1    6837    6840       3    6837    6843       3    6852    6855       1
    6849    6852       3    6849    6855       3    6864    6867       1    6861
    6864       3    6861    6867       3    6876    6879       1    6873    6876
       3    6873    6879       3    6888    6891       1    6885    6888       3
    6885    6891       3    6900    6903       1    6897    6900       3    6897
    6903       3    6912    6915       1    6909    6912       3    6909    6915
       3    6924    6927       1    6921    6924       3    6921    6927       3
    6936    6939       1    6933    6936       3    6933    6939       3    6948
    6951       1    6945    6948       3    6945    6951       3    6960    6963
       1    6957    6960       3    6957    6963       3    6972    6975       1
    6969    6972       3    6969    6975       3    6984    6987       1    6981
    6984       3    6981    6987       3    6996    6999       1    6993    6996
       3    6993    6999       3    7008    7011       1    7005    7008       3
    7005    7011       3    7020    7023       1    7017    7020       3    7017
    7023       3    7032    7035       1    7029    7032       3    7029    7035
       3    7044    7047       1    7041    7044       3    7041    7047       3
    7056    7059       1    7053    7056       3    7053    7059       3    7068
    7071       1    7065    7068       3    7065    7071       3    7080    7083
       1    7077    7080       3    7077    7083       3    7092    7095       1
    7089    7092       3    7089    7095       3    7104    7107       1    7101
    7104       3    7101    7107       3    7116    7119       1    7113    7116
       3    7113    7119       3    7128    7131       1    7125    7128       3
    7125    7131       3    7140    7143       1    7137    7140       3    7137
    7143       3    7152    7155       1    7149    7152       3    7149    7155
       3    7164    7167       1    7161    7164       3    7161    7167       3
    7176    7179       1    7173    7176       3    7173    7179       3    7188
    7191       1    7185    7188       3    7185    7191       3    7200    7203
       1    7197    7200       3    7197    7203       3    7212    7215       1
    7209    7212       3    7209    7215       3    7224    7227       1    7221
    7224       3    7221    7227       3    7236    7239       1    7233    7236
       3    7233    7239       3    7248    7251       1    7245    7248       3
    7245    7251       3    7260    7263       1    7257    7260       3    7257
    7263       3    7272    7275       1    7269    7272       3    7269    7275
       3    7284    7287       1    7281    7284       3    7281    7287       3
    7296    7299       1    7293    7296       3    7293    7299       3    7308
    7311       1    7305    7308       3    7305    7311       3    7320    7323
       1    7317    7320       3    7317    7323       3    7332    7335       1
    7329    7332       3    7329    7335       3    7344    7347       1    7341
    7344       3    7341    7347       3    7356    7359       1    7353    7356
       3    7353    7359       3    7368    7371       1    7365    7368       3
    7365    7371       3    7380    7383       1    7377    7380       3    7377
    7383       3    7392    7395       1    7389    7392       3    7389    7395
       3    7404    7407       1    7401    7404       3    7401    7407       3
    7416    7419       1    7413    7416       3    7413    7419       3    7428
    7431       1    7425    7428       3    7425    7431       3    7440    7443
       1    7437    7440       3    7437    7443       3    7452    7455       1
    7449    7452       3    7449    7455       3    7464    7467       1    7461
    7464       3    7461    7467       3    7476    7479       1    7473    7476
       3    7473    7479       3    7488    7491       1    7485    7488       3
    7485    7491       3    7500    7503       1    7497    7500       3    7497
    7503       3    7512    7515       1    7509    7512       3    7509    7515
       3    7524    7527       1    7521    7524       3    7521    7527       3
    7536    7539       1    7533    7536       3    7533    7539       3    7548
    7551       1    7545    7548       3    7545    7551       3    7560    7563
       1    7557    7560       3    7557    7563       3    7572    7575       1
    7569    7572       3    7569    7575       3    7584    7587       1    7581
    7584       3    7581    7587       3    7596    7599       1    7593    7596
       3    7593    7599       3    7608    7611       1    7605    7608       3
    7605    7611       3    7620    7623       1    7617    7620       3    7617
    7623       3    7632    7635       1    7629    7632       3    7629    7635
       3    7644    7647       1    7641    7644       3    7641    7647       3
    7656    7659       1    7653    7656       3    7653    7659       3    7668
    7671       1    7665    7668       3    7665    7671       3    7680    7683
       1    7677    7680       3    7677    7683       3    7692    7695       1
    7689    7692       3    7689    7695       3    7704    7707       1    7701
    7704       3    7701    7707       3    7716    7719       1    7713    7716
       3    7713    7719       3    7728    7731       1    7725    7728       3
    7725    7731       3    7740    7743       1    7737    7740       3    7737
    7743       3    7752    7755       1    7749    7752       3    7749    7755
       3    7764    7767       1    7761    7764       3    7761    7767       3
    7776    7779       1    7773    7776       3    7773    7779       3    7788
    7791       1    7785    7788       3    7785    7791       3    7800    7803
       1    7797    7800       3    7797    7803       3    7812    7815       1
    7809    7812       3    7809    7815       3    7824    7827       1    7821
    7824       3    7821    7827       3    7836    7839       1    7833    7836
       3    7833    7839       3    7848    7851       1    7845    7848       3
    7845    7851       3    7860    7863       1    7857    7860       3    7857
    7863       3    7872    7875       1    7869    7872       3    7869    7875
       3    7884    7887       1    7881    7884       3    7881    7887       3
    7896    7899       1    7893    7896       3    7893    7899       3    7908
    7911       1    7905    7908       3    7905    7911       3    7920    7923
       1    7917    7920       3    7917    7923       3    7932    7935       1
    7929    7932       3    7929    7935       3    7944    7947       1    7941
    7944       3    7941    7947       3    7956    7959       1    7953    7956
       3    7953    7959       3    7968    7971       1    7965    7968       3
    7965    7971       3    7980    7983       1    7977    7980       3    7977
    7983       3    7992    7995       1    7989    7992       3    7989    7995
       3    8004    8007       1    8001    8004       3    8001    8007       3
    8016    8019       1    8013    8016       3    8013    8019       3    8028
    8031       1    8025    8028       3    8025    8031       3    8040    8043
       1    8037    8040       3    8037    8043       3    8052    8055       1
    8049    8052       3    8049    8055       3    8064    8067       1    8061
    8064       3    8061    8067       3    8076    8079       1    8073    8076
       3    8073    8079       3    8088    8091       1    8085    8088       3
    8085    8091       3    8100    8103       1    8097    8100       3    8097
    8103       3    8112    8115       1    8109    8112       3    8109    8115
       3    8124    8127       1    8121    8124       3    8121    8127       3
    8136    8139       1    8133    8136       3    8133    8139       3    8148
    8151       1    8145    8148       3    8145    8151       3    8160    8163
       1    8157    8160       3    8157    8163       3    8172    8175       1
    8169    8172       3    8169    8175       3    8184    8187       1    8181
    8184       3    8181    8187       3    8196    8199       1    8193    8196
       3    8193    8199       3    8208    8211       1    8205    8208       3
    8205    8211       3    8220    8223       1    8217    8220       3    8217
    8223       3    8232    8235       1    8229    8232       3    8229    8235
       3    8244    8247       1    8241    8244       3    8241    8247       3
    8256    8259       1    8253    8256       3    8253    8259       3    8268
    8271       1    8265    8268       3    8265    8271       3    8280    8283
       1    8277    8280       3    8277    8283       3    8292    8295       1
    8289    8292       3    8289    8295       3    8304    8307       1    8301
    8304       3    8301    8307       3    8316    8319       1    8313    8316
       3    8313    8319       3    8328    8331       1    8325    8328       3
    8325    8331       3    8340    8343       1    8337    8340       3    8337
    8343       3    8352    8355       1    8349    8352       3    8349    8355
       3    8364    8367       1    8361    8364       3    8361    8367       3
    8376    8379       1    8373    8376       3    8373    8379       3    8388
    8391       1    8385    8388       3    8385    8391       3    8400    8403
       1    8397    8400       3    8397    8403       3    8412    8415       1
    8409    8412       3    8409    8415       3    8424    8427       1    8421
    8424       3    8421    8427       3    8436    8439       1    8433    8436
       3    8433    8439       3    8448    8451       1    8445    8448       3
    8445    8451       3    8460    8463       1    8457    8460       3    8457
    8463       3    8472    8475       1    8469    8472       3    8469    8475
       3    8484    8487       1    8481    8484       3    8481    8487       3
    8496    8499       1    8493    8496       3    8493    8499       3    8508
    8511       1    8505    8508       3    8505    8511       3    8520    8523
       1    8517    8520       3    8517    8523       3    8532    8535       1
    8529    8532       3    8529    8535       3    8544    8547       1    8541
    8544       3    8541    8547       3    8556    8559       1    8553    8556
       3    8553    8559       3    8568    8571       1    8565    8568       3
    8565    8571       3    8580    8583       1    8577    8580       3    8577
    8583       3    8592    8595       1    8589    8592       3    8589    8595
       3    8604    8607       1    8601    8604       3    8601    8607       3
    8616    8619       1    8613    8616       3    8613    8619       3    8628
    8631       1    8625    8628       3    8625    8631       3    8640    8643
       1    8637    8640       3    8637    8643       3    8652    8655       1
    8649    8652       3    8649    8655       3    8664    8667       1    8661
    8664       3    8661    8667       3    8676    8679       1    8673    8676
       3    8673    8679       3    8688    8691       1    8685    8688       3
    8685    8691       3    8700    8703       1    8697    8700       3    8697
    8703       3    8712    8715       1    8709    8712       3    8709    8715
       3    8724    8727       1    8721    8724       3    8721    8727       3
    8736    8739       1    8733    8736       3    8733    8739       3    8748
    8751       1    8745    8748       3    8745    8751       3    8760    8763
       1    8757    8760       3    8757    8763       3    8772    8775       1
    8769    8772       3    8769    8775       3    8784    8787       1    8781
    8784       3    8781    8787       3    8796    8799       1    8793    8796
       3    8793    8799       3    8808    8811       1    8805    8808       3
    8805    8811       3    8820    8823       1    8817    8820       3    8817
    8823       3    8832    8835       1    8829    8832       3    8829    8835
       3    8844    8847       1    8841    8844       3    8841    8847       3
    8856    8859       1    8853    8856       3    8853    8859       3    8868
    8871       1    8865    8868       3    8865    8871       3    8880    8883
       1    8877    8880       3    8877    8883       3    8892    8895       1
    8889    8892       3    8889    8895       3    8904    8907       1    8901
    8904       3    8901    8907       3    8916    8919       1    8913    8916
       3    8913    8919       3    8928    8931       1    8925    8928       3
    8925    8931       3    8940    8943       1    8937    8940       3    8937
    8943       3    8952    8955       1    8949    8952       3    8949    8955
       3    8964    8967       1    8961    8964       3    8961    8967       3
    8976    8979       1    8973    8976       3    8973    8979       3    8988
    8991       1    8985    8988       3    8985    8991       3    9000    9003
       1    8997    9000       3    8997    9003       3    9012    9015       1
    9009    9012       3    9009    9015       3    9024    9027       1    9021
    9024       3    9021    9027       3    9036    9039       1    9033    9036
       3    9033    9039       3    9048    9051       1    9045    9048       3
    9045    9051       3    9060    9063       1    9057    9060       3    9057
    9063       3    9072    9075       1    9069    9072       3    9069    9075
       3    9084    9087       1    9081    9084       3    9081    9087       3
    9096    9099       1    9093    9096       3    9093    9099       3    9108
    9111       1    9105    9108       3    9105    9111       3    9120    9123
       1    9117    9120       3    9117    9123       3    9132    9135       1
    9129    9132       3    9129    9135       3    9144    9147       1    9141
    9144       3    9141    9147       3    9156    9159       1    9153    9156
       3    9153    9159       3    9168    9171       1    9165    9168       3
    9165    9171       3    9180    9183       1    9177    9180       3    9177
    9183       3    9192    9195       1    9189    9192       3    9189    9195
       3    9204    9207       1    9201    9204       3    9201    9207       3
    9216    9219       1    9213    9216       3    9213    9219       3    9228
    9231       1    9225    9228       3    9225    9231       3    9240    9243
       1    9237    9240       3    9237    9243       3    9252    9255       1
    9249    9252       3    9249    9255       3    9264    9267       1    9261
    9264       3    9261    9267       3    9276    9279       1    9273    9276
       3    9273    9279       3    9288    9291       1    9285    9288       3
    9285    9291       3    9300    9303       1    9297    9300       3    9297
    9303       3    9312    9315       1    9309    9312       3    9309    9315
       3    9324    9327       1    9321    9324       3    9321    9327       3
    9336    9339       1    9333    9336       3    9333    9339       3    9348
    9351       1    9345    9348       3    9345    9351       3    9360    9363
       1    9357    9360       3    9357    9363       3    9372    9375       1
    9369    9372       3    9369    9375       3    9384    9387       1    9381
    9384       3    9381    9387       3    9396    9399       1    9393    9396
       3    9393    9399       3    9408    9411       1    9405    9408       3
    9405    9411       3    9420    9423       1    9417    9420       3    9417
    9423       3    9432    9435       1    9429    9432       3    9429    9435
       3    9444    9447       1    9441    9444       3    9441    9447       3
    9456    9459       1    9453    9456       3    9453    9459       3    9468
    9471       1    9465    9468       3    9465    9471       3    9480    9483
       1    9477    9480       3    9477    9483       3    9492    9495       1
    9489    9492       3    9489    9495       3    9504    9507       1    9501
    9504       3    9501    9507       3    9516    9519       1    9513    9516
       3    9513    9519       3    9528    9531       1    9525    9528       3
    9525    9531       3    9540    9543       1    9537    9540       3    9537
    9543       3    9552    9555       1    9549    9552       3    9549    9555
       3    9564    9567       1    9561    9564       3    9561    9567       3
    9576    9579       1    9573    9576       3    9573    9579       3    9588
    9591       1    9585    9588       3    9585    9591       3    9600    9603
       1    9597    9600       3    9597    9603       3    9612    9615       1
    9609    9612       3    9609    9615       3    9624    9627       1    9621
    9624       3    9621    9627       3    9636    9639       1    9633    9636
       3    9633    9639       3    9648    9651       1    9645    9648       3
    9645    9651       3    9660    9663       1    9657    9660       3    9657
    9663       3    9672    9675       1    9669    9672       3    9669    9675
       3    9684    9687       1    9681    9684       3    9681    9687       3
    9696    9699       1    9693    9696       3    9693    9699       3    9708
    9711       1    9705    9708       3    9705    9711       3    9720    9723
       1    9717    9720       3    9717    9723       3    9732    9735       1
    9729    9732       3    9729    9735       3    9744    9747       1    9741
    9744       3    9741    9747       3    9756    9759       1    9753    9756
       3    9753    9759       3    9768    9771       1    9765    9768       3
    9765    9771       3    9780    9783       1    9777    9780       3    9777
    9783       3    9792    9795       1    9789    9792       3    9789    9795
       3    9804    9807       1    9801    9804       3    9801    9807       3
    9816    9819       1    9813    9816       3    9813    9819       3    9828
    9831       1    9825    9828       3    9825    9831       3    9840    9843
       1    9837    9840       3    9837    9843       3    9852    9855       1
    9849    9852       3    9849    9855       3    9864    9867       1    9861
    9864       3    9861    9867       3    9876    9879       1    9873    9876
       3    9873    9879       3    9888    9891       1    9885    9888       3
    9885    9891       3    9900    9903       1    9897    9900       3    9897
    9903       3    9912    9915       1    9909    9912       3    9909    9915
       3    9924    9927       1    9921    9924       3    9921    9927       3
    9936    9939       1    9933    9936       3    9933    9939       3    9948
    9951       1    9945    9948       3    9945    9951       3    9960    9963
       1    9957    9960       3    9957    9963       3    9972    9975       1
    9969    9972       3    9969    9975       3    9984    9987       1    9981
    9984       3    9981    9987       3    9996    9999       1    9993    9996
       3    9993    9999       3   10008   10011       1   10005   10008       3
   10005   10011       3   10020   10023       1   10017   10020       3   10017
   10023       3   10032   10035       1   10029   10032       3   10029   10035
       3   10044   10047       1   10041   10044       3   10041   10047       3
   10056   10059       1   10053   10056       3   10053   10059       3   10068
   10071       1   10065   10068       3   10065   10071       3   10080   10083
       1   10077   10080       3   10077   10083       3   10092   10095       1
   10089   10092       3   10089   10095       3   10104   10107       1   10101
   10104       3   10101   10107       3   10116   10119       1   10113   10116
       3   10113   10119       3   10128   10131       1   10125   10128       3
   10125   10131       3   10140   10143       1   10137   10140       3   10137
   10143       3   10152   10155       1   10149   10152       3   10149   10155
       3   10164   10167       1   10161   10164       3   10161   10167       3
   10176   10179       1   10173   10176       3   10173   10179       3   10188
   10191       1   10185   10188       3   10185   10191       3   10200   10203
       1   10197   10200       3   10197   10203       3   10212   10215       1
   10209   10212       3   10209   10215       3   10224   10227       1   10221
   10224       3   10221   10227       3   10236   10239       1   10233   10236
       3   10233   10239       3   10248   10251       1   10245   10248       3
   10245   10251       3   10260   10263       1   10257   10260       3   10257
   10263       3   10272   10275       1   10269   10272       3   10269   10275
       3   10284   10287       1   10281   10284       3   10281   10287       3
   10296   10299       1   10293   10296       3   10293   10299       3   10308
   10311       1   10305   10308       3   10305   10311       3   10320   10323
       1   10317   10320       3   10317   10323       3   10332   10335       1
   10329   10332       3   10329   10335       3   10344   10347       1   10341
   10344       3   10341   10347       3   10356   10359       1   10353   10356
       3   10353   10359       3   10368   10371       1   10365   10368       3
   10365   10371       3   10380   10383       1   10377   10380       3   10377
   10383       3   10392   10395       1   10389   10392       3   10389   10395
       3   10404   10407       1   10401   10404       3   10401   10407       3
   10416   10419       1   10413   10416       3   10413   10419       3   10428
   10431       1   10425   10428       3   10425   10431       3   10440   10443
       1   10437   10440       3   10437   10443       3   10452   10455       1
   10449   10452       3   10449   10455       3   10464   10467       1   10461
   10464       3   10461   10467       3   10476   10479       1   10473   10476
       3   10473   10479       3   10488   10491       1   10485   10488       3
   10485   10491       3   10500   10503       1   10497   10500       3   10497
   10503       3   10512   10515       1   10509   10512       3   10509   10515
       3   10524   10527       1   10521   10524       3   10521   10527       3
   10536   10539       1   10533   10536       3   10533   10539       3   10548
   10551       1   10545   10548       3   10545   10551       3   10560   10563
       1   10557   10560       3   10557   10563       3   10572   10575       1
   10569   10572       3   10569   10575       3   10584   10587       1   10581
   10584       3   10581   10587       3   10596   10599       1   10593   10596
       3   10593   10599       3   10608   10611       1   10605   10608       3
   10605   10611       3   10620   10623       1   10617   10620       3   10617
   10623       3   10632   10635       1   10629   10632       3   10629   10635
       3   10644   10647       1   10641   10644       3   10641   10647       3
   10656   10659       1   10653   10656       3   10653   10659       3   10668
   10671       1   10665   10668       3   10665   10671       3   10680   10683
       1   10677   10680       3   10677   10683       3   10692   10695       1
   10689   10692       3   10689   10695       3   10704   10707       1   10701
   10704       3   10701   10707       3   10716   10719       1   10713   10716
       3   10713   10719       3   10728   10731       1   10725   10728       3
   10725   10731       3   10740   10743       1   10737   10740       3   10737
   10743       3   10752   10755       1   10749   10752       3   10749   10755
       3   10764   10767       1   10761   10764       3   10761   10767       3
   10776   10779       1   10773   10776       3   10773   10779       3   10788
   10791       1   10785   10788       3   10785   10791       3   10800   10803
       1   10797   10800       3   10797   10803       3   10812   10815       1
   10809   10812       3   10809   10815       3   10824   10827       1   10821
   10824       3   10821   10827       3   10836   10839       1   10833   10836
       3   10833   10839       3   10848   10851       1   10845   10848       3
   10845   10851       3   10860   10863       1   10857   10860       3   10857
   10863       3   10872   10875       1   10869   10872       3   10869   10875
       3   10884   10887       1   10881   10884       3   10881   10887       3
   10896   10899       1   10893   10896       3   10893   10899       3   10908
   10911       1   10905   10908       3   10905   10911       3   10920   10923
       1   10917   10920       3   10917   10923       3   10932   10935       1
   10929   10932       3   10929   10935       3   10944   10947       1   10941
   10944       3   10941   10947       3   10956   10959       1   10953   10956
       3   10953   10959       3   10968   10971       1   10965   10968       3
   10965   10971       3   10980   10983       1   10977   10980       3   10977
   10983       3   10992   10995       1   10989   10992       3   10989   10995
       3   11004   11007       1   11001   11004       3   11001   11007       3
   11016   11019       1   11013   11016       3   11013   11019       3   11028
   11031       1   11025   11028       3   11025   11031       3   11040   11043
       1   11037   11040       3   11037   11043       3   11052   11055       1
   11049   11052       3   11049   11055       3   11064   11067       1   11061
   11064       3   11061   11067       3   11076   11079       1   11073   11076
       3   11073   11079       3   11088   11091       1   11085   11088       3
   11085   11091       3   11100   11103       1   11097   11100       3   11097
   11103       3   11112   11115       1   11109   11112       3   11109   11115
       3   11124   11127       1   11121   11124       3   11121   11127       3
   11136   11139       1   11133   11136       3   11133   11139       3   11148
   11151       1   11145   11148       3   11145   11151       3   11160   11163
       1   11157   11160       3   11157   11163       3   11172   11175       1
   11169   11172       3   11169   11175       3   11184   11187       1   11181
   11184       3   11181   11187       3   11196   11199       1   11193   11196
       3   11193   11199       3   11208   11211       1   11205   11208       3
   11205   11211       3   11220   11223       1   11217   11220       3   11217
   11223       3   11232   11235       1   11229   11232       3   11229   11235
       3   11244   11247       1   11241   11244       3   11241   11247       3
   11256   11259       1   11253   11256       3   11253   11259       3   11268
   11271       1   11265   11268       3   11265   11271       3   11280   11283
       1   11277   11280       3   11277   11283       3   11292   11295       1
   11289   11292       3   11289   11295       3   11304   11307       1   11301
   11304       3   11301   11307       3   11316   11319       1   11313   11316
       3   11313   11319       3   11328   11331       1   11325   11328       3
   11325   11331       3   11340   11343       1   11337   11340       3   11337
   11343       3   11352   11355       1   11349   11352       3   11349   11355
       3   11364   11367       1   11361   11364       3   11361   11367       3
   11376   11379       1   11373   11376       3   11373   11379       3   11388
   11391       1   11385   11388       3   11385   11391       3   11400   11403
       1   11397   11400       3   11397   11403       3   11412   11415       1
   11409   11412       3   11409   11415       3   11424   11427       1   11421
   11424       3   11421   11427       3   11436   11439       1   11433   11436
       3   11433   11439       3   11448   11451       1   11445   11448       3
   11445   11451       3   11460   11463       1   11457   11460       3   11457
   11463       3   11472   11475       1   11469   11472       3   11469   11475
       3   11484   11487       1   11481   11484       3   11481   11487       3
   11496   11499       1   11493   11496       3   11493   11499       3   11508
   11511       1   11505   11508       3   11505   11511       3   11520   11523
       1   11517   11520       3   11517   11523       3   11532   11535       1
   11529   11532       3   11529   11535       3   11544   11547       1   11541
   11544       3   11541   11547       3   11556   11559       1   11553   11556
       3   11553   11559       3   11568   11571       1   11565   11568       3
   11565   11571       3   11580   11583       1   11577   11580       3   11577
   11583       3   11592   11595       1   11589   11592       3   11589   11595
       3   11604   11607       1   11601   11604       3   11601   11607       3
   11616   11619       1   11613   11616       3   11613   11619       3   11628
   11631       1   11625   11628       3   11625   11631       3   11640   11643
       1   11637   11640       3   11637   11643       3   11652   11655       1
   11649   11652       3   11649   11655       3   11664   11667       1   11661
   11664       3   11661   11667       3   11676   11679       1   11673   11676
       3   11673   11679       3   11688   11691       1   11685   11688       3
   11685   11691       3   11700   11703       1   11697   11700       3   11697
   11703       3   11712   11715       1   11709   11712       3   11709   11715
       3   11724   11727       1   11721   11724       3   11721   11727       3
   11736   11739       1   11733   11736       3   11733   11739       3   11748
   11751       1   11745   11748       3   11745   11751       3   11760   11763
       1   11757   11760       3   11757   11763       3   11772   11775       1
   11769   11772       3   11769   11775       3   11784   11787       1   11781
   11784       3   11781   11787       3   11796   11799       1   11793   11796
       3   11793   11799       3   11808   11811       1   11805   11808       3
   11805   11811       3   11820   11823       1   11817   11820       3   11817
   11823       3   11832   11835       1   11829   11832       3   11829   11835
       3   11844   11847       1   11841   11844       3   11841   11847       3
   11856   11859       1   11853   11856       3   11853   11859       3   11868
   11871       1   11865   11868       3   11865   11871       3   11880   11883
       1   11877   11880       3   11877   11883       3   11892   11895       1
   11889   11892       3   11889   11895       3   11904   11907       1   11901
   11904       3   11901   11907       3   11916   11919       1   11913   11916
       3   11913   11919       3   11928   11931       1   11925   11928       3
   11925   11931       3   11940   11943       1   11937   11940       3   11937
   11943       3   11952   11955       1   11949   11952       3   11949   11955
       3   11964   11967       1   11961   11964       3   11961   11967       3
   11976   11979       1   11973   11976       3   11973   11979       3   11988
   11991       1   11985   11988       3   11985   11991       3   12000   12003
       1   11997   12000       3   11997   12003       3   12012   12015       1
   12009   12012       3   12009   12015       3   12024   12027       1   12021
   12024       3   12021   12027       3   12036   12039       1   12033   12036
       3   12033   12039       3   12048   12051       1   12045   12048       3
   12045   12051       3   12060   12063       1   12057   12060       3   12057
   12063       3   12072   12075       1   12069   12072       3   12069   12075
       3   12084   12087       1   12081   12084       3   12081   12087       3
   12096   12099       1   12093   12096       3   12093   12099       3   12108
   12111       1   12105   12108       3   12105   12111       3   12120   12123
       1   12117   12120       3   12117   12123       3   12132   12135       1
   12129   12132       3   12129   12135       3   12144   12147       1   12141
   12144       3   12141   12147       3   12156   12159       1   12153   12156
       3   12153   12159       3   12168   12171       1   12165   12168       3
   12165   12171       3   12180   12183       1   12177   12180       3   12177
   12183       3   12192   12195       1   12189   12192       3   12189   12195
       3   12204   12207       1   12201   12204       3   12201   12207       3
   12216   12219       1   12213   12216       3   12213   12219       3   12228
   12231       1   12225   12228       3   12225   12231       3   12240   12243
       1   12237   12240       3   12237   12243       3   12252   12255       1
   12249   12252       3   12249   12255       3   12264   12267       1   12261
   12264       3   12261   12267       3   12276   12279       1   12273   12276
       3   12273   12279       3   12288   12291       1   12285   12288       3
   12285   12291       3   12300   12303       1   12297   12300       3   12297
   12303       3   12312   12315       1   12309   12312       3   12309   12315
       3   12324   12327       1   12321   12324       3   12321   12327       3
   12336   12339       1   12333   12336       3   12333   12339       3   12348
   12351       1   12345   12348       3   12345   12351       3   12360   12363
       1   12357   12360       3   12357   12363       3   12372   12375       1
   12369   12372       3   12369   12375       3   12384   12387       1   12381
   12384       3   12381   12387       3   12396   12399       1   12393   12396
       3   12393   12399       3   12408   12411       1   12405   12408       3
   12405   12411       3   12420   12423       1   12417   12420       3   12417
   12423       3   12432   12435       1   12429   12432       3   12429   12435
       3   12444   12447       1   12441   12444       3   12441   12447       3
   12456   12459       1   12453   12456       3   12453   12459       3   12468
   12471       1   12465   12468       3   12465   12471       3   12480   12483
       1   12477   12480       3   12477   12483       3   12492   12495       1
   12489   12492       3   12489   12495       3   12504   12507       1   12501
   12504       3   12501   12507       3   12516   12519       1   12513   12516
       3   12513   12519       3   12528   12531       1   12525   12528       3
   12525   12531       3   12540   12543       1   12537   12540       3   12537
   12543       3   12552   12555       1   12549   12552       3   12549   12555
       3   12564   12567       1   12561   12564       3   12561   12567       3
   12576   12579       1   12573   12576       3   12573   12579       3   12588
   12591       1   12585   12588       3   12585   12591       3   12600   12603
       1   12597   12600       3   12597   12603       3   12612   12615       1
   12609   12612       3   12609   12615       3   12624   12627       1   12621
   12624       3   12621   12627       3   12636   12639       1   12633   12636
       3   12633   12639       3   12648   12651       1   12645   12648       3
   12645   12651       3   12660   12663       1   12657   12660       3   12657
   12663       3   12672   12675       1   12669   12672       3   12669   12675
       3   12684   12687       1   12681   12684       3   12681   12687       3
   12696   12699       1   12693   12696       3   12693   12699       3   12708
   12711       1   12705   12708       3   12705   12711       3   12720   12723
       1   12717   12720       3   12717   12723       3   12732   12735       1
   12729   12732       3   12729   12735       3   12744   12747       1   12741
   12744       3   12741   12747       3   12756   12759       1   12753   12756
       3   12753   12759       3   12768   12771       1   12765   12768       3
   12765   12771       3   12780   12783       1   12777   12780       3   12777
   12783       3   12792   12795       1   12789   12792       3   12789   12795
       3   12804   12807       1   12801   12804       3   12801   12807       3
   12816   12819       1   12813   12816       3   12813   12819       3   12828
   12831       1   12825   12828       3   12825   12831       3   12840   12843
       1   12837   12840       3   12837   12843       3   12852   12855       1
   12849   12852       3   12849   12855       3   12864   12867       1   12861
   12864       3   12861   12867       3   12876   12879       1   12873   12876
       3   12873   12879       3   12888   12891       1   12885   12888       3
   12885   12891       3   12900   12903       1   12897   12900       3   12897
   12903       3   12912   12915       1   12909   12912       3   12909   12915
       3   12924   12927       1   12921   12924       3   12921   12927       3
   12936   12939       1   12933   12936       3   12933   12939       3   12948
   12951       1   12945   12948       3   12945   12951       3   12960   12963
       1   12957   12960       3   12957   12963       3   12972   12975       1
   12969   12972       3   12969   12975       3   12984   12987       1   12981
   12984       3   12981   12987       3   12996   12999       1   12993   12996
       3   12993   12999       3   13008   13011       1   13005   13008       3
   13005   13011       3   13020   13023       1   13017   13020       3   13017
   13023       3   13032   13035       1   13029   13032       3   13029   13035
       3   13044   13047       1   13041   13044       3   13041   13047       3
   13056   13059       1   13053   13056       3   13053   13059       3   13068
   13071       1   13065   13068       3   13065   13071       3   13080   13083
       1   13077   13080       3   13077   13083       3   13092   13095       1
   13089   13092       3   13089   13095       3   13104   13107       1   13101
   13104       3   13101   13107       3   13116   13119       1   13113   13116
       3   13113   13119       3   13128   13131       1   13125   13128       3
   13125   13131       3   13140   13143       1   13137   13140       3   13137
   13143       3   13152   13155       1   13149   13152       3   13149   13155
       3   13164   13167       1   13161   13164       3   13161   13167       3
   13176   13179       1   13173   13176       3   13173   13179       3   13188
   13191       1   13185   13188       3   13185   13191       3   13200   13203
       1   13197   13200       3   13197   13203       3   13212   13215       1
   13209   13212       3   13209   13215       3   13224   13227       1   13221
   13224       3   13221   13227       3   13236   13239       1   13233   13236
       3   13233   13239       3   13248   13251       1   13245   13248       3
   13245   13251       3   13260   13263       1   13257   13260       3   13257
   13263       3   13272   13275       1   13269   13272       3   13269   13275
       3   13284   13287       1   13281   13284       3   13281   13287       3
   13296   13299       1   13293   13296       3   13293   13299       3   13308
   13311       1   13305   13308       3   13305   13311       3   13320   13323
       1   13317   13320       3   13317   13323       3   13332   13335       1
   13329   13332       3   13329   13335       3   13344   13347       1   13341
   13344       3   13341   13347       3   13356   13359       1   13353   13356
       3   13353   13359       3   13368   13371       1   13365   13368       3
   13365   13371       3   13380   13383       1   13377   13380       3   13377
   13383       3   13392   13395       1   13389   13392       3   13389   13395
       3   13404   13407       1   13401   13404       3   13401   13407       3
   13416   13419       1   13413   13416       3   13413   13419       3   13428
   13431       1   13425   13428       3   13425   13431       3   13440   13443
       1   13437   13440       3   13437   13443       3   13452   13455       1
   13449   13452       3   13449   13455       3   13464   13467       1   13461
   13464       3   13461   13467       3   13476   13479       1   13473   13476
       3   13473   13479       3   13488   13491       1   13485   13488       3
   13485   13491       3   13500   13503       1   13497   13500       3   13497
   13503       3   13512   13515       1   13509   13512       3   13509   13515
       3   13524   13527       1   13521   13524       3   13521   13527       3
   13536   13539       1   13533   13536       3   13533   13539       3   13548
   13551       1   13545   13548       3   13545   13551       3   13560   13563
       1   13557   13560       3   13557   13563       3   13572   13575       1
   13569   13572       3   13569   13575       3   13584   13587       1   13581
   13584       3   13581   13587       3   13596   13599       1   13593   13596
       3   13593   13599       3   13608   13611       1   13605   13608       3
   13605   13611       3   13620   13623       1   13617   13620       3   13617
   13623       3   13632   13635       1   13629   13632       3   13629   13635
       3   13644   13647       1   13641   13644       3   13641   13647       3
   13656   13659       1   13653   13656       3   13653   13659       3   13668
   13671       1   13665   13668       3   13665   13671       3   13680   13683
       1   13677   13680       3   13677   13683       3   13692   13695       1
   13689   13692       3   13689   13695       3   13704   13707       1   13701
   13704       3   13701   13707       3   13716   13719       1   13713   13716
       3   13713   13719       3   13728   13731       1   13725   13728       3
   13725   13731       3   13740   13743       1   13737   13740       3   13737
   13743       3   13752   13755       1   13749   13752       3   13749   13755
       3   13764   13767       1   13761   13764       3   13761   13767       3
   13776   13779       1   13773   13776       3   13773   13779       3   13788
   13791       1   13785   13788       3   13785   13791       3   13800   13803
       1   13797   13800       3   13797   13803       3   13812   13815       1
   13809   13812       3   13809   13815       3   13824   13827       1   13821
   13824       3   13821   13827       3   13836   13839       1   13833   13836
       3   13833   13839       3   13848   13851       1   13845   13848       3
   13845   13851       3   13860   13863       1   13857   13860       3   13857
   13863       3   13872   13875       1   13869   13872       3   13869   13875
       3   13884   13887       1   13881   13884       3   13881   13887       3
   13896   13899       1   13893   13896       3   13893   13899       3   13908
   13911       1   13905   13908       3   13905   13911       3   13920   13923
       1   13917   13920       3   13917   13923       3   13932   13935       1
   13929   13932       3   13929   13935       3   13944   13947       1   13941
   13944       3   13941   13947       3   13956   13959       1   13953   13956
       3   13953   13959       3   13968   13971       1   13965   13968       3
   13965   13971       3   13980   13983       1   13977   13980       3   13977
   13983       3   13992   13995       1   13989   13992       3   13989   13995
       3   14004   14007       1   14001   14004       3   14001   14007       3
   14016   14019       1   14013   14016       3   14013   14019       3   14028
   14031       1   14025   14028       3   14025   14031       3   14040   14043
       1   14037   14040       3   14037   14043       3   14052   14055       1
   14049   14052       3   14049   14055       3   14064   14067       1   14061
   14064       3   14061   14067       3   14076   14079       1   14073   14076
       3   14073   14079       3   14088   14091       1   14085   14088       3
   14085   14091       3   14100   14103       1   14097   14100       3   14097
   14103       3   14112   14115       1   14109   14112       3   14109   14115
       3   14124   14127       1   14121   14124       3   14121   14127       3
   14136   14139       1   14133   14136       3   14133   14139       3   14148
   14151       1   14145   14148       3   14145   14151       3   14160   14163
       1   14157   14160       3   14157   14163       3   14172   14175       1
   14169   14172       3   14169   14175       3   14184   14187       1   14181
   14184       3   14181   14187       3   14196   14199       1   14193   14196
       3   14193   14199       3   14208   14211       1   14205   14208       3
   14205   14211       3   14220   14223       1   14217   14220       3   14217
   14223       3   14232   14235       1   14229   14232       3   14229   14235
       3   14244   14247       1   14241   14244       3   14241   14247       3
   14256   14259       1   14253   14256       3   14253   14259       3   14268
   14271       1   14265   14268       3   14265   14271       3   14280   14283
       1   14277   14280       3   14277   14283       3   14292   14295       1
   14289   14292       3   14289   14295       3   14304   14307       1   14301
   14304       3   14301   14307       3   14316   14319       1   14313   14316
       3   14313   14319       3   14328   14331       1   14325   14328       3
   14325   14331       3   14340   14343       1   14337   14340       3   14337
   14343       3   14352   14355       1   14349   14352       3   14349   14355
       3   14364   14367       1   14361   14364       3   14361   14367       3
   14376   14379       1   14373   14376       3   14373   14379       3   14388
   14391       1   14385   14388       3   14385   14391       3   14400   14403
       1   14397   14400       3   14397   14403       3   14412   14415       1
   14409   14412       3   14409   14415       3   14424   14427       1   14421
   14424       3   14421   14427       3   14436   14439       1   14433   14436
       3   14433   14439       3   14448   14451       1   14445   14448       3
   14445   14451       3   14460   14463       1   14457   14460       3   14457
   14463       3   14472   14475       1   14469   14472       3   14469   14475
       3   14484   14487       1   14481   14484       3   14481   14487       3
   14496   14499       1   14493   14496       3   14493   14499       3   14508
   14511       1   14505   14508       3   14505   14511       3   14520   14523
       1   14517   14520       3   14517   14523       3   14532   14535       1
   14529   14532       3   14529   14535       3   14544   14547       1   14541
   14544       3   14541   14547       3   14556   14559       1   14553   14556
       3   14553   14559       3   14568   14571       1   14565   14568       3
   14565   14571       3   14580   14583       1   14577   14580       3   14577
   14583       3   14592   14595       1   14589   14592       3   14589   14595
       3   14604   14607       1   14601   14604       3   14601   14607       3
   14616   14619       1   14613   14616       3   14613   14619       3   14628
   14631       1   14625   14628       3   14625   14631       3   14640   14643
       1   14637   14640       3   14637   14643       3   14652   14655       1
   14649   14652       3   14649   14655       3   14664   14667       1   14661
   14664       3   14661   14667       3   14676   14679       1   14673   14676
       3   14673   14679       3   14688   14691       1   14685   14688       3
   14685   14691       3   14700   14703       1   14697   14700       3   14697
   14703       3   14712   14715       1   14709   14712       3   14709   14715
       3   14724   14727       1   14721   14724       3   14721   14727       3
   14736   14739       1   14733   14736       3   14733   14739       3   14748
   14751       1   14745   14748       3   14745   14751       3   14760   14763
       1   14757   14760       3   14757   14763       3   14772   14775       1
   14769   14772       3   14769   14775       3   14784   14787       1   14781
   14784       3   14781   14787       3   14796   14799       1   14793   14796
       3   14793   14799       3   14808   14811       1   14805   14808       3
   14805   14811       3   14820   14823       1   14817   14820       3   14817
   14823       3   14832   14835       1   14829   14832       3   14829   14835
       3   14844   14847       1   14841   14844       3   14841   14847       3
   14856   14859       1   14853   14856       3   14853   14859       3   14868
   14871       1   14865   14868       3   14865   14871       3   14880   14883
       1   14877   14880       3   14877   14883       3   14892   14895       1
   14889   14892       3   14889   14895       3   14904   14907       1   14901
   14904       3   14901   14907       3   14916   14919       1   14913   14916
       3   14913   14919       3   14928   14931       1   14925   14928       3
   14925   14931       3   14940   14943       1   14937   14940       3   14937
   14943       3   14952   14955       1   14949   14952       3   14949   14955
       3   14964   14967       1   14961   14964       3   14961   14967       3
   14976   14979       1   14973   14976       3   14973   14979       3   14988
   14991       1   14985   14988       3   14985   14991       3   15000   15003
       1   14997   15000       3   14997   15003       3   15012   15015       1
   15009   15012       3   15009   15015       3   15024   15027       1   15021
   15024       3   15021   15027       3   15036   15039       1   15033   15036
       3   15033   15039       3   15048   15051       1   15045   15048       3
   15045   15051       3   15060   15063       1   15057   15060       3   15057
   15063       3   15072   15075       1   15069   15072       3   15069   15075
       3   15084   15087       1   15081   15084       3   15081   15087       3
   15096   15099       1   15093   15096       3   15093   15099       3   15108
   15111       1   15105   15108       3   15105   15111       3   15120   15123
       1   15117   15120       3   15117   15123       3   15132   15135       1
   15129   15132       3   15129   15135       3   15144   15147       1   15141
   15144       3   15141   15147       3   15156   15159       1   15153   15156
       3   15153   15159       3   15168   15171       1   15165   15168       3
   15165   15171       3   15180   15183       1   15177   15180       3   15177
   15183       3   15192   15195       1   15189   15192       3   15189   15195
       3   15204   15207       1   15201   15204       3   15201   15207       3
   15216   15219       1   15213   15216       3   15213   15219       3   15228
   15231       1   15225   15228       3   15225   15231       3   15240   15243
       1   15237   15240       3   15237   15243       3   15252   15255       1
   15249   15252       3   15249   15255       3   15264   15267       1   15261
   15264       3   15261   15267       3   15276   15279       1   15273   15276
       3   15273   15279       3   15288   15291       1   15285   15288       3
   15285   15291       3   15300   15303       1   15297   15300       3   15297
   15303       3   15312   15315       1   15309   15312       3   15309   15315
       3   15324   15327       1   15321   15324       3   15321   15327       3
   15336   15339       1   15333   15336       3   15333   15339       3   15348
   15351       1   15345   15348       3   15345   15351       3   15360   15363
       1   15357   15360       3   15357   15363       3   15372   15375       1
   15369   15372       3   15369   15375       3   15384   15387       1   15381
   15384       3   15381   15387       3   15396   15399       1   15393   15396
       3   15393   15399       3   15408   15411       1   15405   15408       3
   15405   15411       3   15420   15423       1   15417   15420       3   15417
   15423       3   15432   15435       1   15429   15432       3   15429   15435
       3   15444   15447       1   15441   15444       3   15441   15447       3
   15456   15459       1   15453   15456       3   15453   15459       3   15468
   15471       1   15465   15468       3   15465   15471       3   15480   15483
       1   15477   15480       3   15477   15483       3   15492   15495       1
   15489   15492       3   15489   15495       3   15504   15507       1   15501
   15504       3   15501   15507       3   15516   15519       1   15513   15516
       3   15513   15519       3   15528   15531       1   15525   15528       3
   15525   15531       3   15540   15543       1   15537   15540       3   15537
   15543       3   15552   15555       1   15549   15552       3   15549   15555
       3   15564   15567       1   15561   15564       3   15561   15567       3
   15576   15579       1   15573   15576       3   15573   15579       3   15588
   15591       1   15585   15588       3   15585   15591       3   15600   15603
       1   15597   15600       3   15597   15603       3   15612   15615       1
   15609   15612       3   15609   15615       3   15624   15627       1   15621
   15624       3   15621   15627       3   15636   15639       1   15633   15636
       3   15633   15639       3   15648   15651       1   15645   15648       3
   15645   15651       3   15660   15663       1   15657   15660       3   15657
   15663       3   15672   15675       1   15669   15672       3   15669   15675
       3   15684   15687       1   15681   15684       3   15681   15687       3
   15696   15699       1   15693   15696       3   15693   15699       3   15708
   15711       1   15705   15708       3   15705   15711       3   15720   15723
       1   15717   15720       3   15717   15723       3   15732   15735       1
   15729   15732       3   15729   15735       3   15744   15747       1   15741
   15744       3   15741   15747       3   15756   15759       1   15753   15756
       3   15753   15759       3   15768   15771       1   15765   15768       3
   15765   15771       3   15780   15783       1   15777   15780       3   15777
   15783       3   15792   15795       1   15789   15792       3   15789   15795
       3   15804   15807       1   15801   15804       3   15801   15807       3
   15816   15819       1   15813   15816       3   15813   15819       3   15828
   15831       1   15825   15828       3   15825   15831       3   15840   15843
       1   15837   15840       3   15837   15843       3   15852   15855       1
   15849   15852       3   15849   15855       3   15864   15867       1   15861
   15864       3   15861   15867       3   15876   15879       1   15873   15876
       3   15873   15879       3   15888   15891       1   15885   15888       3
   15885   15891       3   15900   15903       1   15897   15900       3   15897
   15903       3   15912   15915       1   15909   15912       3   15909   15915
       3   15924   15927       1   15921   15924       3   15921   15927       3
   15936   15939       1   15933   15936       3   15933   15939       3   15948
   15951       1   15945   15948       3   15945   15951       3   15960   15963
       1   15957   15960       3   15957   15963       3   15972   15975       1
   15969   15972       3   15969   15975       3   15984   15987       1   15981
   15984       3   15981   15987       3   15996   15999       1   15993   15996
       3   15993   15999       3   16008   16011       1   16005   16008       3
   16005   16011       3   16020   16023       1   16017   16020       3   16017
   16023       3   16032   16035       1   16029   16032       3   16029   16035
       3   16044   16047       1   16041   16044       3   16041   16047       3
   16056   16059       1   16053   16056       3   16053   16059       3   16068
   16071       1   16065   16068       3   16065   16071       3   16080   16083
       1   16077   16080       3   16077   16083       3   16092   16095       1
   16089   16092       3   16089   16095       3   16104   16107       1   16101
   16104       3   16101   16107       3   16116   16119       1   16113   16116
       3   16113   16119       3   16128   16131       1   16125   16128       3
   16125   16131       3   16140   16143       1   16137   16140       3   16137
   16143       3   16152   16155       1   16149   16152       3   16149   16155
       3   16164   16167       1   16161   16164       3   16161   16167       3
   16176   16179       1   16173   16176       3   16173   16179       3   16188
   16191       1   16185   16188       3   16185   16191       3   16200   16203
       1   16197   16200       3   16197   16203       3   16212   16215       1
   16209   16212       3   16209   16215       3   16224   16227       1   16221
   16224       3   16221   16227       3   16236   16239       1   16233   16236
       3   16233   16239       3   16248   16251       1   16245   16248       3
   16245   16251       3   16260   16263       1   16257   16260       3   16257
   16263       3   16272   16275       1   16269   16272       3   16269   16275
       3   16284   16287       1   16281   16284       3   16281   16287       3
   16296   16299       1   16293   16296       3   16293   16299       3   16308
   16311       1   16305   16308       3   16305   16311       3   16320   16323
       1   16317   16320       3   16317   16323       3   16332   16335       1
   16329   16332       3   16329   16335       3   16344   16347       1   16341
   16344       3   16341   16347       3   16356   16359       1   16353   16356
       3   16353   16359       3   16368   16371       1   16365   16368       3
   16365   16371       3   16380   16383       1   16377   16380       3   16377
   16383       3   16392   16395       1   16389   16392       3   16389   16395
       3   16404   16407       1   16401   16404       3   16401   16407       3
   16416   16419       1   16413   16416       3   16413   16419       3   16428
   16431       1   16425   16428       3   16425   16431       3   16440   16443
       1   16437   16440       3   16437   16443       3   16452   16455       1
   16449   16452       3   16449   16455       3   16464   16467       1   16461
   16464       3   16461   16467       3   16476   16479       1   16473   16476
       3   16473   16479       3   16488   16491       1   16485   16488       3
   16485   16491       3   16500   16503       1   16497   16500       3   16497
   16503       3   16512   16515       1   16509   16512       3   16509   16515
       3   16524   16527       1   16521   16524       3   16521   16527       3
   16536   16539       1   16533   16536       3   16533   16539       3   16548
   16551       1   16545   16548       3   16545   16551       3   16560   16563
       1   16557   16560       3   16557   16563       3   16572   16575       1
   16569   16572       3   16569   16575       3   16584   16587       1   16581
   16584       3   16581   16587       3   16596   16599       1   16593   16596
       3   16593   16599       3   16608   16611       1   16605   16608       3
   16605   16611       3   16620   16623       1   16617   16620       3   16617
   16623       3   16632   16635       1   16629   16632       3   16629   16635
       3   16644   16647       1   16641   16644       3   16641   16647       3
   16656   16659       1   16653   16656       3   16653   16659       3   16668
   16671       1   16665   16668       3   16665   16671       3   16680   16683
       1   16677   16680       3   16677   16683       3   16692   16695       1
   16689   16692       3   16689   16695       3   16704   16707       1   16701
   16704       3   16701   16707       3   16716   16719       1   16713   16716
       3   16713   16719       3   16728   16731       1   16725   16728       3
   16725   16731       3   16740   16743       1   16737   16740       3   16737
   16743       3   16752   16755       1   16749   16752       3   16749   16755
       3   16764   16767       1   16761   16764       3   16761   16767       3
   16776   16779       1   16773   16776       3   16773   16779       3   16788
   16791       1   16785   16788       3   16785   16791       3   16800   16803
       1   16797   16800       3   16797   16803       3   16812   16815       1
   16809   16812       3   16809   16815       3   16824   16827       1   16821
   16824       3   16821   16827       3   16836   16839       1   16833   16836
       3   16833   16839       3   16848   16851       1   16845   16848       3
   16845   16851       3   16860   16863       1   16857   16860       3   16857
   16863       3   16872   16875       1   16869   16872       3   16869   16875
       3   16884   16887       1   16881   16884       3   16881   16887       3
   16896   16899       1   16893   16896       3   16893   16899       3   16908
   16911       1   16905   16908       3   16905   16911       3   16920   16923
       1   16917   16920       3   16917   16923       3   16932   16935       1
   16929   16932       3   16929   16935       3   16944   16947       1   16941
   16944       3   16941   16947       3   16956   16959       1   16953   16956
       3   16953   16959       3   16968   16971       1   16965   16968       3
   16965   16971       3   16980   16983       1   16977   16980       3   16977
   16983       3   16992   16995       1   16989   16992       3   16989   16995
       3   17004   17007       1   17001   17004       3   17001   17007       3
   17016   17019       1   17013   17016       3   17013   17019       3   17028
   17031       1   17025   17028       3   17025   17031       3   17040   17043
       1   17037   17040       3   17037   17043       3   17052   17055       1
   17049   17052       3   17049   17055       3   17064   17067       1   17061
   17064       3   17061   17067       3   17076   17079       1   17073   17076
       3   17073   17079       3   17088   17091       1   17085   17088       3
   17085   17091       3   17100   17103       1   17097   17100       3   17097
   17103       3   17112   17115       1   17109   17112       3   17109   17115
       3   17124   17127       1   17121   17124       3   17121   17127       3
   17136   17139       1   17133   17136       3   17133   17139       3   17148
   17151       1   17145   17148       3   17145   17151       3   17160   17163
       1   17157   17160       3   17157   17163       3   17172   17175       1
   17169   17172       3   17169   17175       3   17184   17187       1   17181
   17184       3   17181   17187       3   17196   17199       1   17193   17196
       3   17193   17199       3   17208   17211       1   17205   17208       3
   17205   17211       3   17220   17223       1   17217   17220       3   17217
   17223       3   17232   17235       1   17229   17232       3   17229   17235
       3   17244   17247       1   17241   17244       3   17241   17247       3
   17256   17259       1   17253   17256       3   17253   17259       3   17268
   17271       1   17265   17268       3   17265   17271       3   17280   17283
       1   17277   17280       3   17277   17283       3   17292   17295       1
   17289   17292       3   17289   17295       3   17304   17307       1   17301
   17304       3   17301   17307       3   17316   17319       1   17313   17316
       3   17313   17319       3   17328   17331       1   17325   17328       3
   17325   17331       3   17340   17343       1   17337   17340       3   17337
   17343       3   17352   17355       1   17349   17352       3   17349   17355
       3   17364   17367       1   17361   17364       3   17361   17367       3
   17376   17379       1   17373   17376       3   17373   17379       3   17388
   17391       1   17385   17388       3   17385   17391       3   17400   17403
       1   17397   17400       3   17397   17403       3   17412   17415       1
   17409   17412       3   17409   17415       3   17424   17427       1   17421
   17424       3   17421   17427       3   17436   17439       1   17433   17436
       3   17433   17439       3   17448   17451       1   17445   17448       3
   17445   17451       3   17460   17463       1   17457   17460       3   17457
   17463       3   17472   17475       1   17469   17472       3   17469   17475
       3   17484   17487       1   17481   17484       3   17481   17487       3
   17496   17499       1   17493   17496       3   17493   17499       3   17508
   17511       1   17505   17508       3   17505   17511       3   17520   17523
       1   17517   17520       3   17517   17523       3   17532   17535       1
   17529   17532       3   17529   17535       3   17544   17547       1   17541
   17544       3   17541   17547       3   17556   17559       1   17553   17556
       3   17553   17559       3   17568   17571       1   17565   17568       3
   17565   17571       3   17580   17583       1   17577   17580       3   17577
   17583       3   17592   17595       1   17589   17592       3   17589   17595
       3   17604   17607       1   17601   17604       3   17601   17607       3
   17616   17619       1   17613   17616       3   17613   17619       3   17628
   17631       1   17625   17628       3   17625   17631       3   17640   17643
       1   17637   17640       3   17637   17643       3   17652   17655       1
   17649   17652       3   17649   17655       3   17664   17667       1   17661
   17664       3   17661   17667       3   17676   17679       1   17673   17676
       3   17673   17679       3   17688   17691       1   17685   17688       3
   17685   17691       3   17700   17703       1   17697   17700       3   17697
   17703       3   17712   17715       1   17709   17712       3   17709   17715
       3   17724   17727       1   17721   17724       3   17721   17727       3
   17736   17739       1   17733   17736       3   17733   17739       3   17748
   17751       1   17745   17748       3   17745   17751       3   17760   17763
       1   17757   17760       3   17757   17763       3   17772   17775       1
   17769   17772       3   17769   17775       3   17784   17787       1   17781
   17784       3   17781   17787       3   17796   17799       1   17793   17796
       3   17793   17799       3   17808   17811       1   17805   17808       3
   17805   17811       3   17820   17823       1   17817   17820       3   17817
   17823       3   17832   17835       1   17829   17832       3   17829   17835
       3   17844   17847       1   17841   17844       3   17841   17847       3
   17856   17859       1   17853   17856       3   17853   17859       3   17868
   17871       1   17865   17868       3   17865   17871       3   17880   17883
       1   17877   17880       3   17877   17883       3   17892   17895       1
   17889   17892       3   17889   17895       3   17904   17907       1   17901
   17904       3   17901   17907       3   17916   17919       1   17913   17916
       3   17913   17919       3   17928   17931       1   17925   17928       3
   17925   17931       3   17940   17943       1   17937   17940       3   17937
   17943       3   17952   17955       1   17949   17952       3   17949   17955
       3   17964   17967       1   17961   17964       3   17961   17967       3
   17976   17979       1   17973   17976       3   17973   17979       3   17988
   17991       1   17985   17988       3   17985   17991       3   18000   18003
       1   17997   18000       3   17997   18003       3   18012   18015       1
   18009   18012       3   18009   18015       3   18024   18027       1   18021
   18024       3   18021   18027       3   18036   18039       1   18033   18036
       3   18033   18039       3   18048   18051       1   18045   18048       3
   18045   18051       3   18060   18063       1   18057   18060       3   18057
   18063       3   18072   18075       1   18069   18072       3   18069   18075
       3   18084   18087       1   18081   18084       3   18081   18087       3
   18096   18099       1   18093   18096       3   18093   18099       3   18108
   18111       1   18105   18108       3   18105   18111       3   18120   18123
       1   18117   18120       3   18117   18123       3   18132   18135       1
   18129   18132       3   18129   18135       3   18144   18147       1   18141
   18144       3   18141   18147       3   18156   18159       1   18153   18156
       3   18153   18159       3   18168   18171       1   18165   18168       3
   18165   18171       3   18180   18183       1   18177   18180       3   18177
   18183       3   18192   18195       1   18189   18192       3   18189   18195
       3   18204   18207       1   18201   18204       3   18201   18207       3
   18216   18219       1   18213   18216       3   18213   18219       3   18228
   18231       1   18225   18228       3   18225   18231       3   18240   18243
       1   18237   18240       3   18237   18243       3   18252   18255       1
   18249   18252       3   18249   18255       3   18264   18267       1   18261
   18264       3   18261   18267       3   18276   18279       1   18273   18276
       3   18273   18279       3   18288   18291       1   18285   18288       3
   18285   18291       3   18300   18303       1   18297   18300       3   18297
   18303       3   18312   18315       1   18309   18312       3   18309   18315
       3   18324   18327       1   18321   18324       3   18321   18327       3
   18336   18339       1   18333   18336       3   18333   18339       3   18348
   18351       1   18345   18348       3   18345   18351       3   18360   18363
       1   18357   18360       3   18357   18363       3   18372   18375       1
   18369   18372       3   18369   18375       3   18384   18387       1   18381
   18384       3   18381   18387       3   18396   18399       1   18393   18396
       3   18393   18399       3   18408   18411       1   18405   18408       3
   18405   18411       3   18420   18423       1   18417   18420       3   18417
   18423       3   18432   18435       1   18429   18432       3   18429   18435
       3   18444   18447       1   18441   18444       3   18441   18447       3
   18456   18459       1   18453   18456       3   18453   18459       3   18468
   18471       1   18465   18468       3   18465   18471       3   18480   18483
       1   18477   18480       3   18477   18483       3   18492   18495       1
   18489   18492       3   18489   18495       3   18504   18507       1   18501
   18504       3   18501   18507       3   18516   18519       1   18513   18516
       3   18513   18519       3   18528   18531       1   18525   18528       3
   18525   18531       3   18540   18543       1   18537   18540       3   18537
   18543       3   18552   18555       1   18549   18552       3   18549   18555
       3   18564   18567       1   18561   18564       3   18561   18567       3
   18576   18579       1   18573   18576       3   18573   18579       3   18588
   18591       1   18585   18588       3   18585   18591       3   18600   18603
       1   18597   18600       3   18597   18603       3   18612   18615       1
   18609   18612       3   18609   18615       3   18624   18627       1   18621
   18624       3   18621   18627       3   18636   18639       1   18633   18636
       3   18633   18639       3   18648   18651       1   18645   18648       3
   18645   18651       3   18660   18663       1   18657   18660       3   18657
   18663       3   18672   18675       1   18669   18672       3   18669   18675
       3   18684   18687       1   18681   18684       3   18681   18687       3
   18696   18699       1   18693   18696       3   18693   18699       3   18708
   18711       1   18705   18708       3   18705   18711       3   18720   18723
       1   18717   18720       3   18717   18723       3   18732   18735       1
   18729   18732       3   18729   18735       3   18744   18747       1   18741
   18744       3   18741   18747       3   18756   18759       1   18753   18756
       3   18753   18759       3   18768   18771       1   18765   18768       3
   18765   18771       3   18780   18783       1   18777   18780       3   18777
   18783       3   18792   18795       1   18789   18792       3   18789   18795
       3   18804   18807       1   18801   18804       3   18801   18807       3
   18816   18819       1   18813   18816       3   18813   18819       3   18828
   18831       1   18825   18828       3   18825   18831       3   18840   18843
       1   18837   18840       3   18837   18843       3   18852   18855       1
   18849   18852       3   18849   18855       3   18864   18867       1   18861
   18864       3   18861   18867       3   18876   18879       1   18873   18876
       3   18873   18879       3   18888   18891       1   18885   18888       3
   18885   18891       3   18900   18903       1   18897   18900       3   18897
   18903       3   18912   18915       1   18909   18912       3   18909   18915
       3   18924   18927       1   18921   18924       3   18921   18927       3
   18936   18939       1   18933   18936       3   18933   18939       3   18948
   18951       1   18945   18948       3   18945   18951       3   18960   18963
       1   18957   18960       3   18957   18963       3   18972   18975       1
   18969   18972       3   18969   18975       3   18984   18987       1   18981
   18984       3   18981   18987       3   18996   18999       1   18993   18996
       3   18993   18999       3   19008   19011       1   19005   19008       3
   19005   19011       3   19020   19023       1   19017   19020       3   19017
   19023       3   19032   19035       1   19029   19032       3   19029   19035
       3   19044   19047       1   19041   19044       3   19041   19047       3
   19056   19059       1   19053   19056       3   19053   19059       3   19068
   19071       1   19065   19068       3   19065   19071       3   19080   19083
       1   19077   19080       3   19077   19083       3   19092   19095       1
   19089   19092       3   19089   19095       3   19104   19107       1   19101
   19104       3   19101   19107       3   19116   19119       1   19113   19116
       3   19113   19119       3   19128   19131       1   19125   19128       3
   19125   19131       3   19140   19143       1   19137   19140       3   19137
   19143       3   19152   19155       1   19149   19152       3   19149   19155
       3   19164   19167       1   19161   19164       3   19161   19167       3
   19176   19179       1   19173   19176       3   19173   19179       3   19188
   19191       1   19185   19188       3   19185   19191       3   19200   19203
       1   19197   19200       3   19197   19203       3   19212   19215       1
   19209   19212       3   19209   19215       3   19224   19227       1   19221
   19224       3   19221   19227       3   19236   19239       1   19233   19236
       3   19233   19239       3   19248   19251       1   19245   19248       3
   19245   19251       3   19260   19263       1   19257   19260       3   19257
   19263       3   19272   19275       1   19269   19272       3   19269   19275
       3   19284   19287       1   19281   19284       3   19281   19287       3
   19296   19299       1   19293   19296       3   19293   19299       3   19308
   19311       1   19305   19308       3   19305   19311       3   19320   19323
       1   19317   19320       3   19317   19323       3   19332   19335       1
   19329   19332       3   19329   19335       3   19344   19347       1   19341
   19344       3   19341   19347       3   19356   19359       1   19353   19356
       3   19353   19359       3   19368   19371       1   19365   19368       3
   19365   19371       3   19380   19383       1   19377   19380       3   19377
   19383       3   19392   19395       1   19389   19392       3   19389   19395
       3   19404   19407       1   19401   19404       3   19401   19407       3
   19416   19419       1   19413   19416       3   19413   19419       3   19428
   19431       1   19425   19428       3   19425   19431       3   19440   19443
       1   19437   19440       3   19437   19443       3   19452   19455       1
   19449   19452       3   19449   19455       3   19464   19467       1   19461
   19464       3   19461   19467       3   19476   19479       1   19473   19476
       3   19473   19479       3   19488   19491       1   19485   19488       3
   19485   19491       3   19500   19503       1   19497   19500       3   19497
   19503       3   19512   19515       1   19509   19512       3   19509   19515
       3   19524   19527       1   19521   19524       3   19521   19527       3
   19536   19539       1   19533   19536       3   19533   19539       3   19548
   19551       1   19545   19548       3   19545   19551       3   19560   19563
       1   19557   19560       3   19557   19563       3   19572   19575       1
   19569   19572       3   19569   19575       3   19584   19587       1   19581
   19584       3   19581   19587       3   19596   19599       1   19593   19596
       3   19593   19599       3   19608   19611       1   19605   19608       3
   19605   19611       3   19620   19623       1   19617   19620       3   19617
   19623       3   19632   19635       1   19629   19632       3   19629   19635
       3   19644   19647       1   19641   19644       3   19641   19647       3
   19656   19659       1   19653   19656       3   19653   19659       3   19668
   19671       1   19665   19668       3   19665   19671       3   19680   19683
       1   19677   19680       3   19677   19683       3   19692   19695       1
   19689   19692       3   19689   19695       3   19704   19707       1   19701
   19704       3   19701   19707       3   19716   19719       1   19713   19716
       3   19713   19719       3   19728   19731       1   19725   19728       3
   19725   19731       3   19740   19743       1   19737   19740       3   19737
   19743       3   19752   19755       1   19749   19752       3   19749   19755
       3   19764   19767       1   19761   19764       3   19761   19767       3
   19776   19779       1   19773   19776       3   19773   19779       3   19788
   19791       1   19785   19788       3   19785   19791       3   19800   19803
       1   19797   19800       3   19797   19803       3   19812   19815       1
   19809   19812       3   19809   19815       3   19824   19827       1   19821
   19824       3   19821   19827       3   19836   19839       1   19833   19836
       3   19833   19839       3   19848   19851       1   19845   19848       3
   19845   19851       3   19860   19863       1   19857   19860       3   19857
   19863       3   19872   19875       1   19869   19872       3   19869   19875
       3   19884   19887       1   19881   19884       3   19881   19887       3
   19896   19899       1   19893   19896       3   19893   19899       3   19908
   19911       1   19905   19908       3   19905   19911       3   19920   19923
       1   19917   19920       3   19917   19923       3   19932   19935       1
   19929   19932       3   19929   19935       3   19944   19947       1   19941
   19944       3   19941   19947       3   19956   19959       1   19953   19956
       3   19953   19959       3   19968   19971       1   19965   19968       3
   19965   19971       3   19980   19983       1   19977   19980       3   19977
   19983       3   19992   19995       1   19989   19992       3   19989   19995
       3   20004   20007       1   20001   20004       3   20001   20007       3
   20016   20019       1   20013   20016       3   20013   20019       3   20028
   20031       1   20025   20028       3   20025   20031       3   20040   20043
       1   20037   20040       3   20037   20043       3   20052   20055       1
   20049   20052       3   20049   20055       3   20064   20067       1   20061
   20064       3   20061   20067       3   20076   20079       1   20073   20076
       3   20073   20079       3   20088   20091       1   20085   20088       3
   20085   20091       3   20100   20103       1   20097   20100       3   20097
   20103       3   20112   20115       1   20109   20112       3   20109   20115
       3   20124   20127       1   20121   20124       3   20121   20127       3
   20136   20139       1   20133   20136       3   20133   20139       3   20148
   20151       1   20145   20148       3   20145   20151       3   20160   20163
       1   20157   20160       3   20157   20163       3   20172   20175       1
   20169   20172       3   20169   20175       3   20184   20187       1   20181
   20184       3   20181   20187       3   20196   20199       1   20193   20196
       3   20193   20199       3   20208   20211       1   20205   20208       3
   20205   20211       3   20220   20223       1   20217   20220       3   20217
   20223       3   20232   20235       1   20229   20232       3   20229   20235
       3   20244   20247       1   20241   20244       3   20241   20247       3
   20256   20259       1   20253   20256       3   20253   20259       3   20268
   20271       1   20265   20268       3   20265   20271       3   20280   20283
       1   20277   20280       3   20277   20283       3   20292   20295       1
   20289   20292       3   20289   20295       3   20304   20307       1   20301
   20304       3   20301   20307       3   20316   20319       1   20313   20316
       3   20313   20319       3   20328   20331       1   20325   20328       3
   20325   20331       3   20340   20343       1   20337   20340       3   20337
   20343       3   20352   20355       1   20349   20352       3   20349   20355
       3   20364   20367       1   20361   20364       3   20361   20367       3
   20376   20379       1   20373   20376       3   20373   20379       3   20388
   20391       1   20385   20388       3   20385   20391       3   20400   20403
       1   20397   20400       3   20397   20403       3   20412   20415       1
   20409   20412       3   20409   20415       3   20424   20427       1   20421
   20424       3   20421   20427       3   20436   20439       1   20433   20436
       3   20433   20439       3   20448   20451       1   20445   20448       3
   20445   20451       3   20460   20463       1   20457   20460       3   20457
   20463       3   20472   20475       1   20469   20472       3   20469   20475
       3   20484   20487       1   20481   20484       3   20481   20487       3
   20496   20499       1   20493   20496       3   20493   20499       3   20508
   20511       1   20505   20508       3   20505   20511       3   20520   20523
       1   20517   20520       3   20517   20523       3   20532   20535       1
   20529   20532       3   20529   20535       3   20544   20547       1   20541
   20544       3   20541   20547       3   20556   20559       1   20553   20556
       3   20553   20559       3   20568   20571       1   20565   20568       3
   20565   20571       3   20580   20583       1   20577   20580       3   20577
   20583       3   20592   20595       1   20589   20592       3   20589   20595
       3   20604   20607       1   20601   20604       3   20601   20607       3
   20616   20619       1   20613   20616       3   20613   20619       3   20628
   20631       1   20625   20628       3   20625   20631       3   20640   20643
       1   20637   20640       3   20637   20643       3   20652   20655       1
   20649   20652       3   20649   20655       3   20664   20667       1   20661
   20664       3   20661   20667       3   20676   20679       1   20673   20676
       3   20673   20679       3   20688   20691       1   20685   20688       3
   20685   20691       3   20700   20703       1   20697   20700       3   20697
   20703       3   20712   20715       1   20709   20712       3   20709   20715
       3   20724   20727       1   20721   20724       3   20721   20727       3
   20736   20739       1   20733   20736       3   20733   20739       3   20748
   20751       1   20745   20748       3   20745   20751       3   20760   20763
       1   20757   20760       3   20757   20763       3   20772   20775       1
   20769   20772       3   20769   20775       3   20784   20787       1   20781
   20784       3   20781   20787       3   20796   20799       1   20793   20796
       3   20793   20799       3   20808   20811       1   20805   20808       3
   20805   20811       3   20820   20823       1   20817   20820       3   20817
   20823       3   20832   20835       1   20829   20832       3   20829   20835
       3   20844   20847       1   20841   20844       3   20841   20847       3
   20856   20859       1   20853   20856       3   20853   20859       3   20868
   20871       1   20865   20868       3   20865   20871       3   20880   20883
       1   20877   20880       3   20877   20883       3   20892   20895       1
   20889   20892       3   20889   20895       3   20904   20907       1   20901
   20904       3   20901   20907       3   20916   20919       1   20913   20916
       3   20913   20919       3   20928   20931       1   20925   20928       3
   20925   20931       3   20940   20943       1   20937   20940       3   20937
   20943       3   20952   20955       1   20949   20952       3   20949   20955
       3   20964   20967       1   20961   20964       3   20961   20967       3
   20976   20979       1   20973   20976       3   20973   20979       3   20988
   20991       1   20985   20988       3   20985   20991       3   21000   21003
       1   20997   21000       3   20997   21003       3   21012   21015       1
   21009   21012       3   21009   21015       3   21024   21027       1   21021
   21024       3   21021   21027       3   21036   21039       1   21033   21036
       3   21033   21039       3   21048   21051       1   21045   21048       3
   21045   21051       3   21060   21063       1   21057   21060       3   21057
   21063       3   21072   21075       1   21069   21072       3   21069   21075
       3   21084   21087       1   21081   21084       3   21081   21087       3
   21096   21099       1   21093   21096       3   21093   21099       3   21108
   21111       1   21105   21108       3   21105   21111       3   21120   21123
       1   21117   21120       3   21117   21123       3   21132   21135       1
   21129   21132       3   21129   21135       3   21144   21147       1   21141
   21144       3   21141   21147       3   21156   21159       1   21153   21156
       3   21153   21159       3   21168   21171       1   21165   21168       3
   21165   21171       3   21180   21183       1   21177   21180       3   21177
   21183       3   21192   21195       1   21189   21192       3   21189   21195
       3   21204   21207       1   21201   21204       3   21201   21207       3
   21216   21219       1   21213   21216       3   21213   21219       3   21228
   21231       1   21225   21228       3   21225   21231       3   21240   21243
       1   21237   21240       3   21237   21243       3   21252   21255       1
   21249   21252       3   21249   21255       3   21264   21267       1   21261
   21264       3   21261   21267       3   21276   21279       1   21273   21276
       3   21273   21279       3   21288   21291       1   21285   21288       3
   21285   21291       3   21300   21303       1   21297   21300       3   21297
   21303       3   21312   21315       1   21309   21312       3   21309   21315
       3   21324   21327       1   21321   21324       3   21321   21327       3
   21336   21339       1   21333   21336       3   21333   21339       3   21348
   21351       1   21345   21348       3   21345   21351       3   21360   21363
       1   21357   21360       3   21357   21363       3   21372   21375       1
   21369   21372       3   21369   21375       3   21384   21387       1   21381
   21384       3   21381   21387       3   21396   21399       1   21393   21396
       3   21393   21399       3   21408   21411       1   21405   21408       3
   21405   21411       3   21420   21423       1   21417   21420       3   21417
   21423       3   21432   21435       1   21429   21432       3   21429   21435
       3   21444   21447       1   21441   21444       3   21441   21447       3
   21456   21459       1   21453   21456       3   21453   21459       3   21468
   21471       1   21465   21468       3   21465   21471       3   21480   21483
       1   21477   21480       3   21477   21483       3   21492   21495       1
   21489   21492       3   21489   21495       3   21504   21507       1   21501
   21504       3   21501   21507       3   21516   21519       1   21513   21516
       3   21513   21519       3   21528   21531       1   21525   21528       3
   21525   21531       3   21540   21543       1   21537   21540       3   21537
   21543       3   21552   21555       1   21549   21552       3   21549   21555
       3   21564   21567       1   21561   21564       3   21561   21567       3
   21576   21579       1   21573   21576       3   21573   21579       3   21588
   21591       1   21585   21588       3   21585   21591       3   21600   21603
       1   21597   21600       3   21597   21603       3   21612   21615       1
   21609   21612       3   21609   21615       3   21624   21627       1   21621
   21624       3   21621   21627       3   21636   21639       1   21633   21636
       3   21633   21639       3   21648   21651       1   21645   21648       3
   21645   21651       3   21660   21663       1   21657   21660       3   21657
   21663       3   21672   21675       1   21669   21672       3   21669   21675
       3   21684   21687       1   21681   21684       3   21681   21687       3
   21696   21699       1   21693   21696       3   21693   21699       3   21708
   21711       1   21705   21708       3   21705   21711       3   21720   21723
       1   21717   21720       3   21717   21723       3   21732   21735       1
   21729   21732       3   21729   21735       3   21744   21747       1   21741
   21744       3   21741   21747       3   21756   21759       1   21753   21756
       3   21753   21759       3   21768   21771       1   21765   21768       3
   21765   21771       3   21780   21783       1   21777   21780       3   21777
   21783       3   21792   21795       1   21789   21792       3   21789   21795
       3   21804   21807       1   21801   21804       3   21801   21807       3
   21816   21819       1   21813   21816       3   21813   21819       3   21828
   21831       1   21825   21828       3   21825   21831       3   21840   21843
       1   21837   21840       3   21837   21843       3   21852   21855       1
   21849   21852       3   21849   21855       3   21864   21867       1   21861
   21864       3   21861   21867       3   21876   21879       1   21873   21876
       3   21873   21879       3   21888   21891       1   21885   21888       3
   21885   21891       3   21900   21903       1   21897   21900       3   21897
   21903       3   21912   21915       1   21909   21912       3   21909   21915
       3   21924   21927       1   21921   21924       3   21921   21927       3
   21936   21939       1   21933   21936       3   21933   21939       3   21948
   21951       1   21945   21948       3   21945   21951       3   21960   21963
       1   21957   21960       3   21957   21963       3   21972   21975       1
   21969   21972       3   21969   21975       3   21984   21987       1   21981
   21984       3   21981   21987       3   21996   21999       1   21993   21996
       3   21993   21999       3   22008   22011       1   22005   22008       3
   22005   22011       3   22020   22023       1   22017   22020       3   22017
   22023       3   22032   22035       1   22029   22032       3   22029   22035
       3   22044   22047       1   22041   22044       3   22041   22047       3
   22056   22059       1   22053   22056       3   22053   22059       3   22068
   22071       1   22065   22068       3   22065   22071       3   22080   22083
       1   22077   22080       3   22077   22083       3   22092   22095       1
   22089   22092       3   22089   22095       3   22104   22107       1   22101
   22104       3   22101   22107       3   22116   22119       1   22113   22116
       3   22113   22119       3   22128   22131       1   22125   22128       3
   22125   22131       3   22140   22143       1   22137   22140       3   22137
   22143       3   22152   22155       1   22149   22152       3   22149   22155
       3   22164   22167       1   22161   22164       3   22161   22167       3
   22176   22179       1   22173   22176       3   22173   22179       3   22188
   22191       1   22185   22188       3   22185   22191       3   22200   22203
       1   22197   22200       3   22197   22203       3   22212   22215       1
   22209   22212       3   22209   22215       3   22224   22227       1   22221
   22224       3   22221   22227       3   22236   22239       1   22233   22236
       3   22233   22239       3   22248   22251       1   22245   22248       3
   22245   22251       3   22260   22263       1   22257   22260       3   22257
   22263       3   22272   22275       1   22269   22272       3   22269   22275
       3   22284   22287       1   22281   22284       3   22281   22287       3
   22296   22299       1   22293   22296       3   22293   22299       3   22308
   22311       1   22305   22308       3   22305   22311       3   22320   22323
       1   22317   22320       3   22317   22323       3   22332   22335       1
   22329   22332       3   22329   22335       3   22344   22347       1   22341
   22344       3   22341   22347       3   22356   22359       1   22353   22356
       3   22353   22359       3   22368   22371       1   22365   22368       3
   22365   22371       3   22380   22383       1   22377   22380       3   22377
   22383       3   22392   22395       1   22389   22392       3   22389   22395
       3   22404   22407       1   22401   22404       3   22401   22407       3
   22416   22419       1   22413   22416       3   22413   22419       3   22428
   22431       1   22425   22428       3   22425   22431       3   22440   22443
       1   22437   22440       3   22437   22443       3   22452   22455       1
   22449   22452       3   22449   22455       3   22464   22467       1   22461
   22464       3   22461   22467       3   22476   22479       1   22473   22476
       3   22473   22479       3   22488   22491       1   22485   22488       3
   22485   22491       3   22500   22503       1   22497   22500       3   22497
   22503       3   22512   22515       1   22509   22512       3   22509   22515
       3   22524   22527       1   22521   22524       3   22521   22527       3
   22536   22539       1   22533   22536       3   22533   22539       3   22548
   22551       1   22545   22548       3   22545   22551       3   22560   22563
       1   22557   22560       3   22557   22563       3   22572   22575       1
   22569   22572       3   22569   22575       3   22584   22587       1   22581
   22584       3   22581   22587       3   22596   22599       1   22593   22596
       3   22593   22599       3   22608   22611       1   22605   22608       3
   22605   22611       3   22620   22623       1   22617   22620       3   22617
   22623       3   22632   22635       1   22629   22632       3   22629   22635
       3   22644   22647       1   22641   22644       3   22641   22647       3
   22656   22659       1   22653   22656       3   22653   22659       3   22668
   22671       1   22665   22668       3   22665   22671       3   22680   22683
       1   22677   22680       3   22677   22683       3   22692   22695       1
   22689   22692       3   22689   22695       3   22704   22707       1   22701
   22704       3   22701   22707       3   22716   22719       1   22713   22716
       3   22713   22719       3   22728   22731       1   22725   22728       3
   22725   22731       3   22740   22743       1   22737   22740       3   22737
   22743       3   22752   22755       1   22749   22752       3   22749   22755
       3   22764   22767       1   22761   22764       3   22761   22767       3
   22776   22779       1   22773   22776       3   22773   22779       3   22788
   22791       1   22785   22788       3   22785   22791       3   22800   22803
       1   22797   22800       3   22797   22803       3   22812   22815       1
   22809   22812       3   22809   22815       3   22824   22827       1   22821
   22824       3   22821   22827       3   22836   22839       1   22833   22836
       3   22833   22839       3   22848   22851       1   22845   22848       3
   22845   22851       3   22860   22863       1   22857   22860       3   22857
   22863       3   22872   22875       1   22869   22872       3   22869   22875
       3   22884   22887       1   22881   22884       3   22881   22887       3
   22896   22899       1   22893   22896       3   22893   22899       3   22908
   22911       1   22905   22908       3   22905   22911       3   22920   22923
       1   22917   22920       3   22917   22923       3   22932   22935       1
   22929   22932       3   22929   22935       3   22944   22947       1   22941
   22944       3   22941   22947       3   22956   22959       1   22953   22956
       3   22953   22959       3   22968   22971       1   22965   22968       3
   22965   22971       3   22980   22983       1   22977   22980       3   22977
   22983       3   22992   22995       1   22989   22992       3   22989   22995
       3   23004   23007       1   23001   23004       3   23001   23007       3
   23016   23019       1   23013   23016       3   23013   23019       3   23028
   23031       1   23025   23028       3   23025   23031       3   23040   23043
       1   23037   23040       3   23037   23043       3   23052   23055       1
   23049   23052       3   23049   23055       3   23064   23067       1   23061
   23064       3   23061   23067       3   23076   23079       1   23073   23076
       3   23073   23079       3   23088   23091       1   23085   23088       3
   23085   23091       3   23100   23103       1   23097   23100       3   23097
   23103       3   23112   23115       1   23109   23112       3   23109   23115
       3   23124   23127       1   23121   23124       3   23121   23127       3
   23136   23139       1   23133   23136       3   23133   23139       3   23148
   23151       1   23145   23148       3   23145   23151       3   23160   23163
       1   23157   23160       3   23157   23163       3   23172   23175       1
   23169   23172       3   23169   23175       3   23184   23187       1   23181
   23184       3   23181   23187       3   23196   23199       1   23193   23196
       3   23193   23199       3   23208   23211       1   23205   23208       3
   23205   23211       3   23220   23223       1   23217   23220       3   23217
   23223       3   23232   23235       1   23229   23232       3   23229   23235
       3   23244   23247       1   23241   23244       3   23241   23247       3
   23256   23259       1   23253   23256       3   23253   23259       3   23268
   23271       1   23265   23268       3   23265   23271       3   23280   23283
       1   23277   23280       3   23277   23283       3   23292   23295       1
   23289   23292       3   23289   23295       3   23304   23307       1   23301
   23304       3   23301   23307       3   23316   23319       1   23313   23316
       3   23313   23319       3   23328   23331       1   23325   23328       3
   23325   23331       3   23340   23343       1   23337   23340       3   23337
   23343       3   23352   23355       1   23349   23352       3   23349   23355
       3   23364   23367       1   23361   23364       3   23361   23367       3
   23376   23379       1   23373   23376       3   23373   23379       3   23388
   23391       1   23385   23388       3   23385   23391       3   23400   23403
       1   23397   23400       3   23397   23403       3   23412   23415       1
   23409   23412       3   23409   23415       3   23424   23427       1   23421
   23424       3   23421   23427       3   23436   23439       1   23433   23436
       3   23433   23439       3   23448   23451       1   23445   23448       3
   23445   23451       3   23460   23463       1   23457   23460       3   23457
   23463       3   23472   23475       1   23469   23472       3   23469   23475
       3   23484   23487       1   23481   23484       3   23481   23487       3
   23496   23499       1   23493   23496       3   23493   23499       3   23508
   23511       1   23505   23508       3   23505   23511       3   23520   23523
       1   23517   23520       3   23517   23523       3   23532   23535       1
   23529   23532       3   23529   23535       3   23544   23547       1   23541
   23544       3   23541   23547       3   23556   23559       1   23553   23556
       3   23553   23559       3   23568   23571       1   23565   23568       3
   23565   23571       3   23580   23583       1   23577   23580       3   23577
   23583       3   23592   23595       1   23589   23592       3   23589   23595
       3   23604   23607       1   23601   23604       3   23601   23607       3
   23616   23619       1   23613   23616       3   23613   23619       3   23628
   23631       1   23625   23628       3   23625   23631       3   23640   23643
       1   23637   23640       3   23637   23643       3   23652   23655       1
   23649   23652       3   23649   23655       3   23664   23667       1   23661
   23664       3   23661   23667       3   23676   23679       1   23673   23676
       3   23673   23679       3   23688   23691       1   23685   23688       3
   23685   23691       3   23700   23703       1   23697   23700       3   23697
   23703       3   23712   23715       1   23709   23712       3   23709   23715
       3   23724   23727       1   23721   23724       3   23721   23727       3
   23736   23739       1   23733   23736       3   23733   23739       3   23748
   23751       1   23745   23748       3   23745   23751       3   23760   23763
       1   23757   23760       3   23757   23763       3   23772   23775       1
   23769   23772       3   23769   23775       3   23784   23787       1   23781
   23784       3   23781   23787       3   23796   23799       1   23793   23796
       3   23793   23799       3   23808   23811       1   23805   23808       3
   23805   23811       3   23820   23823       1   23817   23820       3   23817
   23823       3   23832   23835       1   23829   23832       3   23829   23835
       3   23844   23847       1   23841   23844       3   23841   23847       3
   23856   23859       1   23853   23856       3   23853   23859       3   23868
   23871       1   23865   23868       3   23865   23871       3   23880   23883
       1   23877   23880       3   23877   23883       3   23892   23895       1
   23889   23892       3   23889   23895       3   23904   23907       1   23901
   23904       3   23901   23907       3   23916   23919       1   23913   23916
       3   23913   23919       3   23928   23931       1   23925   23928       3
   23925   23931       3   23940   23943       1   23937   23940       3   23937
   23943       3   23952   23955       1   23949   23952       3   23949   23955
       3   23964   23967       1   23961   23964       3   23961   23967       3
   23976   23979       1   23973   23976       3   23973   23979       3   23988
   23991       1   23985   23988       3   23985   23991       3   24000   24003
       1   23997   24000       3   23997   24003       3   24012   24015       1
   24009   24012       3   24009   24015       3   24024   24027       1   24021
   24024       3   24021   24027       3   24036   24039       1   24033   24036
       3   24033   24039       3   24048   24051       1   24045   24048       3
   24045   24051       3   24060   24063       1   24057   24060       3   24057
   24063       3   24072   24075       1   24069   24072       3   24069   24075
       3   24084   24087       1   24081   24084       3   24081   24087       3
   24096   24099       1   24093   24096       3   24093   24099       3   24108
   24111       1   24105   24108       3   24105   24111       3   24120   24123
       1   24117   24120       3   24117   24123       3   24132   24135       1
   24129   24132       3   24129   24135       3   24144   24147       1   24141
   24144       3   24141   24147       3   24156   24159       1   24153   24156
       3   24153   24159       3   24168   24171       1   24165   24168       3
   24165   24171       3   24180   24183       1   24177   24180       3   24177
   24183       3   24192   24195       1   24189   24192       3   24189   24195
       3   24204   24207       1   24201   24204       3   24201   24207       3
   24216   24219       1   24213   24216       3   24213   24219       3   24228
   24231       1   24225   24228       3   24225   24231       3   24240   24243
       1   24237   24240       3   24237   24243       3   24252   24255       1
   24249   24252       3   24249   24255       3   24264   24267       1   24261
   24264       3   24261   24267       3   24276   24279       1   24273   24276
       3   24273   24279       3   24288   24291       1   24285   24288       3
   24285   24291       3   24300   24303       1   24297   24300       3   24297
   24303       3   24312   24315       1   24309   24312       3   24309   24315
       3   24324   24327       1   24321   24324       3   24321   24327       3
   24336   24339       1   24333   24336       3   24333   24339       3   24348
   24351       1   24345   24348       3   24345   24351       3   24360   24363
       1   24357   24360       3   24357   24363       3   24372   24375       1
   24369   24372       3   24369   24375       3   24384   24387       1   24381
   24384       3   24381   24387       3   24396   24399       1   24393   24396
       3   24393   24399       3   24408   24411       1   24405   24408       3
   24405   24411       3   24420   24423       1   24417   24420       3   24417
   24423       3   24432   24435       1   24429   24432       3   24429   24435
       3   24444   24447       1   24441   24444       3   24441   24447       3
   24456   24459       1   24453   24456       3   24453   24459       3   24468
   24471       1   24465   24468       3   24465   24471       3   24480   24483
       1   24477   24480       3   24477   24483       3   24492   24495       1
   24489   24492       3   24489   24495       3   24504   24507       1   24501
   24504       3   24501   24507       3   24516   24519       1   24513   24516
       3   24513   24519       3   24528   24531       1   24525   24528       3
   24525   24531       3   24540   24543       1   24537   24540       3   24537
   24543       3   24552   24555       1   24549   24552       3   24549   24555
       3   24564   24567       1   24561   24564       3   24561   24567       3
   24576   24579       1   24573   24576       3   24573   24579       3   24588
   24591       1   24585   24588       3   24585   24591       3   24600   24603
       1   24597   24600       3   24597   24603       3   24612   24615       1
   24609   24612       3   24609   24615       3   24624   24627       1   24621
   24624       3   24621   24627       3   24636   24639       1   24633   24636
       3   24633   24639       3   24648   24651       1   24645   24648       3
   24645   24651       3   24660   24663       1   24657   24660       3   24657
   24663       3   24672   24675       1   24669   24672       3   24669   24675
       3   24684   24687       1   24681   24684       3   24681   24687       3
   24696   24699       1   24693   24696       3   24693   24699       3   24708
   24711       1   24705   24708       3   24705   24711       3   24720   24723
       1   24717   24720       3   24717   24723       3   24732   24735       1
   24729   24732       3   24729   24735       3   24744   24747       1   24741
   24744       3   24741   24747       3   24756   24759       1   24753   24756
       3   24753   24759       3   24768   24771       1   24765   24768       3
   24765   24771       3   24780   24783       1   24777   24780       3   24777
   24783       3   24792   24795       1   24789   24792       3   24789   24795
       3   24804   24807       1   24801   24804       3   24801   24807       3
   24816   24819       1   24813   24816       3   24813   24819       3   24828
   24831       1   24825   24828       3   24825   24831       3   24840   24843
       1   24837   24840       3   24837   24843       3   24852   24855       1
   24849   24852       3   24849   24855       3   24864   24867       1   24861
   24864       3   24861   24867       3   24876   24879       1   24873   24876
       3   24873   24879       3   24888   24891       1   24885   24888       3
   24885   24891       3   24900   24903       1   24897   24900       3   24897
   24903       3   24912   24915       1   24909   24912       3   24909   24915
       3   24924   24927       1   24921   24924       3   24921   24927       3
   24936   24939       1   24933   24936       3   24933   24939       3   24948
   24951       1   24945   24948       3   24945   24951       3   24960   24963
       1   24957   24960       3   24957   24963       3   24972   24975       1
   24969   24972       3   24969   24975       3   24984   24987       1   24981
   24984       3   24981   24987       3   24996   24999       1   24993   24996
       3   24993   24999       3   25008   25011       1   25005   25008       3
   25005   25011       3   25020   25023       1   25017   25020       3   25017
   25023       3   25032   25035       1   25029   25032       3   25029   25035
       3   25044   25047       1   25041   25044       3   25041   25047       3
   25056   25059       1   25053   25056       3   25053   25059       3   25068
   25071       1   25065   25068       3   25065   25071       3   25080   25083
       1   25077   25080       3   25077   25083       3   25092   25095       1
   25089   25092       3   25089   25095       3   25104   25107       1   25101
   25104       3   25101   25107       3   25116   25119       1   25113   25116
       3   25113   25119       3   25128   25131       1   25125   25128       3
   25125   25131       3   25140   25143       1   25137   25140       3   25137
   25143       3   25152   25155       1   25149   25152       3   25149   25155
       3   25164   25167       1   25161   25164       3   25161   25167       3
   25176   25179       1   25173   25176       3   25173   25179       3   25188
   25191       1   25185   25188       3   25185   25191       3   25200   25203
       1   25197   25200       3   25197   25203       3   25212   25215       1
   25209   25212       3   25209   25215       3   25224   25227       1   25221
   25224       3   25221   25227       3   25236   25239       1   25233   25236
       3   25233   25239       3   25248   25251       1   25245   25248       3
   25245   25251       3   25260   25263       1   25257   25260       3   25257
   25263       3   25272   25275       1   25269   25272       3   25269   25275
       3   25284   25287       1   25281   25284       3   25281   25287       3
   25296   25299       1   25293   25296       3   25293   25299       3   25308
   25311       1   25305   25308       3   25305   25311       3   25320   25323
       1   25317   25320       3   25317   25323       3   25332   25335       1
   25329   25332       3   25329   25335       3   25344   25347       1   25341
   25344       3   25341   25347       3   25356   25359       1   25353   25356
       3   25353   25359       3   25368   25371       1   25365   25368       3
   25365   25371       3   25380   25383       1   25377   25380       3   25377
   25383       3   25392   25395       1   25389   25392       3   25389   25395
       3   25404   25407       1   25401   25404       3   25401   25407       3
   25416   25419       1   25413   25416       3   25413   25419       3   25428
   25431       1   25425   25428       3   25425   25431       3   25440   25443
       1   25437   25440       3   25437   25443       3   25452   25455       1
   25449   25452       3   25449   25455       3   25464   25467       1   25461
   25464       3   25461   25467       3   25476   25479       1   25473   25476
       3   25473   25479       3   25488   25491       1   25485   25488       3
   25485   25491       3   25500   25503       1   25497   25500       3   25497
   25503       3   25512   25515       1   25509   25512       3   25509   25515
       3   25524   25527       1   25521   25524       3   25521   25527       3
   25536   25539       1   25533   25536       3   25533   25539       3   25548
   25551       1   25545   25548       3   25545   25551       3   25560   25563
       1   25557   25560       3   25557   25563       3   25572   25575       1
   25569   25572       3   25569   25575       3   25584   25587       1   25581
   25584       3   25581   25587       3   25596   25599       1   25593   25596
       3   25593   25599       3   25608   25611       1   25605   25608       3
   25605   25611       3   25620   25623       1   25617   25620       3   25617
   25623       3   25632   25635       1   25629   25632       3   25629   25635
       3   25644   25647       1   25641   25644       3   25641   25647       3
   25656   25659       1   25653   25656       3   25653   25659       3   25668
   25671       1   25665   25668       3   25665   25671       3   25680   25683
       1   25677   25680       3   25677   25683       3   25692   25695       1
   25689   25692       3   25689   25695       3   25704   25707       1   25701
   25704       3   25701   25707       3   25716   25719       1   25713   25716
       3   25713   25719       3   25728   25731       1   25725   25728       3
   25725   25731       3   25740   25743       1   25737   25740       3   25737
   25743       3   25752   25755       1   25749   25752       3   25749   25755
       3   25764   25767       1   25761   25764       3   25761   25767       3
   25776   25779       1   25773   25776       3   25773   25779       3   25788
   25791       1   25785   25788       3   25785   25791       3   25800   25803
       1   25797   25800       3   25797   25803       3   25812   25815       1
   25809   25812       3   25809   25815       3   25824   25827       1   25821
   25824       3   25821   25827       3   25836   25839       1   25833   25836
       3   25833   25839       3   25848   25851       1   25845   25848       3
   25845   25851       3   25860   25863       1   25857   25860       3   25857
   25863       3   25872   25875       1   25869   25872       3   25869   25875
       3   25884   25887       1   25881   25884       3   25881   25887       3
   25896   25899       1   25893   25896       3   25893   25899       3   25908
   25911       1   25905   25908       3   25905   25911       3   25920   25923
       1   25917   25920       3   25917   25923       3   25932   25935       1
   25929   25932       3   25929   25935       3   25944   25947       1   25941
   25944       3   25941   25947       3   25956   25959       1   25953   25956
       3   25953   25959       3   25968   25971       1   25965   25968       3
   25965   25971       3   25980   25983       1   25977   25980       3   25977
   25983       3   25992   25995       1   25989   25992       3   25989   25995
       3   26004   26007       1   26001   26004       3   26001   26007       3
   26016   26019       1   26013   26016       3   26013   26019       3   26028
   26031       1   26025   26028       3   26025   26031       3   26040   26043
       1   26037   26040       3   26037   26043       3   26052   26055       1
   26049   26052       3   26049   26055       3   26064   26067       1   26061
   26064       3   26061   26067       3   26076   26079       1   26073   26076
       3   26073   26079       3   26088   26091       1   26085   26088       3
   26085   26091       3   26100   26103       1   26097   26100       3   26097
   26103       3   26112   26115       1   26109   26112       3   26109   26115
       3   26124   26127       1   26121   26124       3   26121   26127       3
   26136   26139       1   26133   26136       3   26133   26139       3   26148
   26151       1   26145   26148       3   26145   26151       3   26160   26163
       1   26157   26160       3   26157   26163       3   26172   26175       1
   26169   26172       3   26169   26175       3   26184   26187       1   26181
   26184       3   26181   26187       3   26196   26199       1   26193   26196
       3   26193   26199       3   26208   26211       1   26205   26208       3
   26205   26211       3   26220   26223       1   26217   26220       3   26217
   26223       3   26232   26235       1   26229   26232       3   26229   26235
       3   26244   26247       1   26241   26244       3   26241   26247       3
   26256   26259       1   26253   26256       3   26253   26259       3      69
      90       4      66      87       6      48      78      11      48      81
      11      48      84      11      42      75      15      36      72      15
%FLAG BONDS_WITHOUT_HYDROGEN                                                    
%FORMAT(10I8)                                                                   
      93     102       2     105     114       2     117     126       2     129
     138       2     141     150       2     153     162       2     165     174
       2     177     186       2     189     198       2     201     210       2
     213     222       2     225     234       2     237     246       2     249
     258       2     261     270       2     273     282       2     285     294
       2     297     306       2     309     318       2     321     330       2
     333     342       2     345     354       2     357     366       2     369
     378       2     381     390       2     393     402       2     405     414
       2     417     426       2     429     438       2     441     450       2
     453     462       2     465     474       2     477     486       2     489
     498       2     501     510       2     513     522       2     525     534
       2     537     546       2     549     558       2     561     570       2
     573     582       2     585     594       2     597     606       2     609
     618       2     621     630       2     633     642       2     645     654
       2     657     666       2     669     678       2     681     690       2
     693     702       2     705     714       2     717     726       2     729
     738       2     741     750       2     753     762       2     765     774
       2     777     786       2     789     798       2     801     810       2
     813     822       2     825     834       2     837     846       2     849
     858       2     861     870       2     873     882       2     885     894
       2     897     906       2     909     918       2     921     930       2
     933     942       2     945     954       2     957     966       2     969
     978       2     981     990       2     993    1002       2    1005    1014
       2    1017    1026       2    1029    1038       2    1041    1050       2
    1053    1062       2    1065    1074       2    1077    1086       2    1089
    1098       2    1101    1110       2    1113    1122       2    1125    1134
       2    1137    1146       2    1149    1158       2    1161    1170       2
    1173    1182       2    1185    1194       2    1197    1206       2    1209
    1218       2    1221    1230       2    1233    1242       2    1245    1254
       2    1257    1266       2    1269    1278       2    1281    1290       2
    1293    1302       2    1305    1314       2    1317    1326       2    1329
    1338       2    1341    1350       2    1353    1362       2    1365    1374
       2    1377    1386       2    1389    1398       2    1401    1410       2
    1413    1422       2    1425    1434       2    1437    1446       2    1449
    1458       2    1461    1470       2    1473    1482       2    1485    1494
       2    1497    1506       2    1509    1518       2    1521    1530       2
    1533    1542       2    1545    1554       2    1557    1566       2    1569
    1578       2    1581    1590       2    1593    1602       2    1605    1614
       2    1617    1626       2    1629    1638       2    1641    1650       2
    1653    1662       2    1665    1674       2    1677    1686       2    1689
    1698       2    1701    1710       2    1713    1722       2    1725    1734
       2    1737    1746       2    1749    1758       2    1761    1770       2
    1773    1782       2    1785    1794       2    1797    1806       2    1809
    1818       2    1821    1830       2    1833    1842       2    1845    1854
       2    1857    1866       2    1869    1878       2    1881    1890       2
    1893    1902       2    1905    1914       2    1917    1926       2    1929
    1938       2    1941    1950       2    1953    1962       2    1965    1974
       2    1977    1986       2    1989    1998       2    2001    2010       2
    2013    2022       2    2025    2034       2    2037    2046       2    2049
    2058       2    2061    2070       2    2073    2082       2    2085    2094
       2    2097    2106       2    2109    2118       2    2121    2130       2
    2133    2142       2    2145    2154       2    2157    2166       2    2169
    2178       2    2181    2190       2    2193    2202       2    2205    2214
       2    2217    2226       2    2229    2238       2    2241    2250       2
    2253    2262       2    2265    2274       2    2277    2286       2    2289
    2298       2    2301    2310       2    2313    2322       2    2325    2334
       2    2337    2346       2    2349    2358       2    2361    2370       2
    2373    2382       2    2385    2394       2    2397    2406       2    2409
    2418       2    2421    2430       2    2433    2442       2    2445    2454
       2    2457    2466       2    2469    2478       2    2481    2490       2
    2493    2502       2    2505    2514       2    2517    2526       2    2529
    2538       2    2541    2550       2    2553    2562       2    2565    2574
       2    2577    2586       2    2589    2598       2    2601    2610       2
    2613    2622       2    2625    2634       2    2637    2646       2    2649
    2658       2    2661    2670       2    2673    2682       2    2685    2694
       2    2697    2706       2    2709    2718       2    2721    2730       2
    2733    2742       2    2745    2754       2    2757    2766       2    2769
    2778       2    2781    2790       2    2793    2802       2    2805    2814
       2    2817    2826       2    2829    2838       2    2841    2850       2
    2853    2862       2    2865    2874       2    2877    2886       2    2889
    2898       2    2901    2910       2    2913    2922       2    2925    2934
       2    2937    2946       2    2949    2958       2    2961    2970       2
    2973    2982       2    2985    2994       2    2997    3006       2    3009
    3018       2    3021    3030       2    3033    3042       2    3045    3054
       2    3057    3066       2    3069    3078       2    3081    3090       2
    3093    3102       2    3105    3114       2    3117    3126       2    3129
    3138       2    3141    3150       2    3153    3162       2    3165    3174
       2    3177    3186       2    3189    3198       2    3201    3210       2
    3213    3222       2    3225    3234       2    3237    3246       2    3249
    3258       2    3261    3270       2    3273    3282       2    3285    3294
       2    3297    3306       2    3309    3318       2    3321    3330       2
    3333    3342       2    3345    3354       2    3357    3366       2    3369
    3378       2    3381    3390       2    3393    3402       2    3405    3414
       2    3417    3426       2    3429    3438       2    3441    3450       2
    3453    3462       2    3465    3474       2    3477    3486       2    3489
    3498       2    3501    3510       2    3513    3522       2    3525    3534
       2    3537    3546       2    3549    3558       2    3561    3570       2
    3573    3582       2    3585    3594       2    3597    3606       2    3609
    3618       2    3621    3630       2    3633    3642       2    3645    3654
       2    3657    3666       2    3669    3678       2    3681    3690       2
    3693    3702       2    3705    3714       2    3717    3726       2    3729
    3738       2    3741    3750       2    3753    3762       2    3765    3774
       2    3777    3786       2    3789    3798       2    3801    3810       2
    3813    3822       2    3825    3834       2    3837    3846       2    3849
    3858       2    3861    3870       2    3873    3882       2    3885    3894
       2    3897    3906       2    3909    3918       2    3921    3930       2
    3933    3942       2    3945    3954       2    3957    3966       2    3969
    3978       2    3981    3990       2    3993    4002       2    4005    4014
       2    4017    4026       2    4029    4038       2    4041    4050       2
    4053    4062       2    4065    4074       2    4077    4086       2    4089
    4098       2    4101    4110       2    4113    4122       2    4125    4134
       2    4137    4146       2    4149    4158       2    4161    4170       2
    4173    4182       2    4185    4194       2    4197    4206       2    4209
    4218       2    4221    4230       2    4233    4242       2    4245    4254
       2    4257    4266       2    4269    4278       2    4281    4290       2
    4293    4302       2    4305    4314       2    4317    4326       2    4329
    4338       2    4341    4350       2    4353    4362       2    4365    4374
       2    4377    4386       2    4389    4398       2    4401    4410       2
    4413    4422       2    4425    4434       2    4437    4446       2    4449
    4458       2    4461    4470       2    4473    4482       2    4485    4494
       2    4497    4506       2    4509    4518       2    4521    4530       2
    4533    4542       2    4545    4554       2    4557    4566       2    4569
    4578       2    4581    4590       2    4593    4602       2    4605    4614
       2    4617    4626       2    4629    4638       2    4641    4650       2
    4653    4662       2    4665    4674       2    4677    4686       2    4689
    4698       2    4701    4710       2    4713    4722       2    4725    4734
       2    4737    4746       2    4749    4758       2    4761    4770       2
    4773    4782       2    4785    4794       2    4797    4806       2    4809
    4818       2    4821    4830       2    4833    4842       2    4845    4854
       2    4857    4866       2    4869    4878       2    4881    4890       2
    4893    4902       2    4905    4914       2    4917    4926       2    4929
    4938       2    4941    4950       2    4953    4962       2    4965    4974
       2    4977    4986       2    4989    4998       2    5001    5010       2
    5013    5022       2    5025    5034       2    5037    5046       2    5049
    5058       2    5061    5070       2    5073    5082       2    5085    5094
       2    5097    5106       2    5109    5118       2    5121    5130       2
    5133    5142       2    5145    5154       2    5157    5166       2    5169
    5178       2    5181    5190       2    5193    5202       2    5205    5214
       2    5217    5226       2    5229    5238       2    5241    5250       2
    5253    5262       2    5265    5274       2    5277    5286       2    5289
    5298       2    5301    5310       2    5313    5322       2    5325    5334
       2    5337    5346       2    5349    5358       2    5361    5370       2
    5373    5382       2    5385    5394       2    5397    5406       2    5409
    5418       2    5421    5430       2    5433    5442       2    5445    5454
       2    5457    5466       2    5469    5478       2    5481    5490       2
    5493    5502       2    5505    5514       2    5517    5526       2    5529
    5538       2    5541    5550       2    5553    5562       2    5565    5574
       2    5577    5586       2    5589    5598       2    5601    5610       2
    5613    5622       2    5625    5634       2    5637    5646       2    5649
    5658       2    5661    5670       2    5673    5682       2    5685    5694
       2    5697    5706       2    5709    5718       2    5721    5730       2
    5733    5742       2    5745    5754       2    5757    5766       2    5769
    5778       2    5781    5790       2    5793    5802       2    5805    5814
       2    5817    5826       2    5829    5838       2    5841    5850       2
    5853    5862       2    5865    5874       2    5877    5886       2    5889
    5898       2    5901    5910       2    5913    5922       2    5925    5934
       2    5937    5946       2    5949    5958       2    5961    5970       2
    5973    5982       2    5985    5994       2    5997    6006       2    6009
    6018       2    6021    6030       2    6033    6042       2    6045    6054
       2    6057    6066       2    6069    6078       2    6081    6090       2
    6093    6102       2    6105    6114       2    6117    6126       2    6129
    6138       2    6141    6150       2    6153    6162       2    6165    6174
       2    6177    6186       2    6189    6198       2    6201    6210       2
    6213    6222       2    6225    6234       2    6237    6246       2    6249
    6258       2    6261    6270       2    6273    6282       2    6285    6294
       2    6297    6306       2    6309    6318       2    6321    6330       2
    6333    6342       2    6345    6354       2    6357    6366       2    6369
    6378       2    6381    6390       2    6393    6402       2    6405    6414
       2    6417    6426       2    6429    6438       2    6441    6450       2
    6453    6462       2    6465    6474       2    6477    6486       2    6489
    6498       2    6501    6510       2    6513    6522       2    6525    6534
       2    6537    6546       2    6549    6558       2    6561    6570       2
    6573    6582       2    6585    6594       2    6597    6606       2    6609
    6618       2    6621    6630       2    6633    6642       2    6645    6654
       2    6657    6666       2    6669    6678       2    6681    6690       2
    6693    6702       2    6705    6714       2    6717    6726       2    6729
    6738       2    6741    6750       2    6753    6762       2    6765    6774
       2    6777    6786       2    6789    6798       2    6801    6810       2
    6813    6822       2    6825    6834       2    6837    6846       2    6849
    6858       2    6861    6870       2    6873    6882       2    6885    6894
       2    6897    6906       2    6909    6918       2    6921    6930       2
    6933    6942       2    6945    6954       2    6957    6966       2    6969
    6978       2    6981    6990       2    6993    7002       2    7005    7014
       2    7017    7026       2    7029    7038       2    7041    7050       2
    7053    7062       2    7065    7074       2    7077    7086       2    7089
    7098       2    7101    7110       2    7113    7122       2    7125    7134
       2    7137    7146       2    7149    7158       2    7161    7170       2
    7173    7182       2    7185    7194       2    7197    7206       2    7209
    7218       2    7221    7230       2    7233    7242       2    7245    7254
       2    7257    7266       2    7269    7278       2    7281    7290       2
    7293    7302       2    7305    7314       2    7317    7326       2    7329
    7338       2    7341    7350       2    7353    7362       2    7365    7374
       2    7377    7386       2    7389    7398       2    7401    7410       2
    7413    7422       2    7425    7434       2    7437    7446       2    7449
    7458       2    7461    7470       2    7473    7482       2    7485    7494
       2    7497    7506       2    7509    7518       2    7521    7530       2
    7533    7542       2    7545    7554       2    7557    7566       2    7569
    7578       2    7581    7590       2    7593    7602       2    7605    7614
       2    7617    7626       2    7629    7638       2    7641    7650       2
    7653    7662       2    7665    7674       2    7677    7686       2    7689
    7698       2    7701    7710       2    7713    7722       2    7725    7734
       2    7737    7746       2    7749    7758       2    7761    7770       2
    7773    7782       2    7785    7794       2    7797    7806       2    7809
    7818       2    7821    7830       2    7833    7842       2    7845    7854
       2    7857    7866       2    7869    7878       2    7881    7890       2
    7893    7902       2    7905    7914       2    7917    7926       2    7929
    7938       2    7941    7950       2    7953    7962       2    7965    7974
       2    7977    7986       2    7989    7998       2    8001    8010       2
    8013    8022       2    8025    8034       2    8037    8046       2    8049
    8058       2    8061    8070       2    8073    8082       2    8085    8094
       2    8097    8106       2    8109    8118       2    8121    8130       2
    8133    8142       2    8145    8154       2    8157    8166       2    8169
    8178       2    8181    8190       2    8193    8202       2    8205    8214
       2    8217    8226       2    8229    8238       2    8241    8250       2
    8253    8262       2    8265    8274       2    8277    8286       2    8289
    8298       2    8301    8310       2    8313    8322       2    8325    8334
       2    8337    8346       2    8349    8358       2    8361    8370       2
    8373    8382       2    8385    8394       2    8397    8406       2    8409
    8418       2    8421    8430       2    8433    8442       2    8445    8454
       2    8457    8466       2    8469    8478       2    8481    8490       2
    8493    8502       2    8505    8514       2    8517    8526       2    8529
    8538       2    8541    8550       2    8553    8562       2    8565    8574
       2    8577    8586       2    8589    8598       2    8601    8610       2
    8613    8622       2    8625    8634       2    8637    8646       2    8649
    8658       2    8661    8670       2    8673    8682       2    8685    8694
       2    8697    8706       2    8709    8718       2    8721    8730       2
    8733    8742       2    8745    8754       2    8757    8766       2    8769
    8778       2    8781    8790       2    8793    8802       2    8805    8814
       2    8817    8826       2    8829    8838       2    8841    8850       2
    8853    8862       2    8865    8874       2    8877    8886       2    8889
    8898       2    8901    8910       2    8913    8922       2    8925    8934
       2    8937    8946       2    8949    8958       2    8961    8970       2
    8973    8982       2    8985    8994       2    8997    9006       2    9009
    9018       2    9021    9030       2    9033    9042       2    9045    9054
       2    9057    9066       2    9069    9078       2    9081    9090       2
    9093    9102       2    9105    9114       2    9117    9126       2    9129
    9138       2    9141    9150       2    9153    9162       2    9165    9174
       2    9177    9186       2    9189    9198       2    9201    9210       2
    9213    9222       2    9225    9234       2    9237    9246       2    9249
    9258       2    9261    9270       2    9273    9282       2    9285    9294
       2    9297    9306       2    9309    9318       2    9321    9330       2
    9333    9342       2    9345    9354       2    9357    9366       2    9369
    9378       2    9381    9390       2    9393    9402       2    9405    9414
       2    9417    9426       2    9429    9438       2    9441    9450       2
    9453    9462       2    9465    9474       2    9477    9486       2    9489
    9498       2    9501    9510       2    9513    9522       2    9525    9534
       2    9537    9546       2    9549    9558       2    9561    9570       2
    9573    9582       2    9585    9594       2    9597    9606       2    9609
    9618       2    9621    9630       2    9633    9642       2    9645    9654
       2    9657    9666       2    9669    9678       2    9681    9690       2
    9693    9702       2    9705    9714       2    9717    9726       2    9729
    9738       2    9741    9750       2    9753    9762       2    9765    9774
       2    9777    9786       2    9789    9798       2    9801    9810       2
    9813    9822       2    9825    9834       2    9837    9846       2    9849
    9858       2    9861    9870       2    9873    9882       2    9885    9894
       2    9897    9906       2    9909    9918       2    9921    9930       2
    9933    9942       2    9945    9954       2    9957    9966       2    9969
    9978       2    9981    9990       2    9993   10002       2   10005   10014
       2   10017   10026       2   10029   10038       2   10041   10050       2
   10053   10062       2   10065   10074       2   10077   10086       2   10089
   10098       2   10101   10110       2   10113   10122       2   10125   10134
       2   10137   10146       2   10149   10158       2   10161   10170       2
   10173   10182       2   10185   10194       2   10197   10206       2   10209
   10218       2   10221   10230       2   10233   10242       2   10245   10254
       2   10257   10266       2   10269   10278       2   10281   10290       2
   10293   10302       2   10305   10314       2   10317   10326       2   10329
   10338       2   10341   10350       2   10353   10362       2   10365   10374
       2   10377   10386       2   10389   10398       2   10401   10410       2
   10413   10422       2   10425   10434       2   10437   10446       2   10449
   10458       2   10461   10470       2   10473   10482       2   10485   10494
       2   10497   10506       2   10509   10518       2   10521   10530       2
   10533   10542       2   10545   10554       2   10557   10566       2   10569
   10578       2   10581   10590       2   10593   10602       2   10605   10614
       2   10617   10626       2   10629   10638       2   10641   10650       2
   10653   10662       2   10665   10674       2   10677   10686       2   10689
   10698       2   10701   10710       2   10713   10722       2   10725   10734
       2   10737   10746       2   10749   10758       2   10761   10770       2
   10773   10782       2   10785   10794       2   10797   10806       2   10809
   10818       2   10821   10830       2   10833   10842       2   10845   10854
       2   10857   10866       2   10869   10878       2   10881   10890       2
   10893   10902       2   10905   10914       2   10917   10926       2   10929
   10938       2   10941   10950       2   10953   10962       2   10965   10974
       2   10977   10986       2   10989   10998       2   11001   11010       2
   11013   11022       2   11025   11034       2   11037   11046       2   11049
   11058       2   11061   11070       2   11073   11082       2   11085   11094
       2   11097   11106       2   11109   11118       2   11121   11130       2
   11133   11142       2   11145   11154       2   11157   11166       2   11169
   11178       2   11181   11190       2   11193   11202       2   11205   11214
       2   11217   11226       2   11229   11238       2   11241   11250       2
   11253   11262       2   11265   11274       2   11277   11286       2   11289
   11298       2   11301   11310       2   11313   11322       2   11325   11334
       2   11337   11346       2   11349   11358       2   11361   11370       2
   11373   11382       2   11385   11394       2   11397   11406       2   11409
   11418       2   11421   11430       2   11433   11442       2   11445   11454
       2   11457   11466       2   11469   11478       2   11481   11490       2
   11493   11502       2   11505   11514       2   11517   11526       2   11529
   11538       2   11541   11550       2   11553   11562       2   11565   11574
       2   11577   11586       2   11589   11598       2   11601   11610       2
   11613   11622       2   11625   11634       2   11637   11646       2   11649
   11658       2   11661   11670       2   11673   11682       2   11685   11694
       2   11697   11706       2   11709   11718       2   11721   11730       2
   11733   11742       2   11745   11754       2   11757   11766       2   11769
   11778       2   11781   11790       2   11793   11802       2   11805   11814
       2   11817   11826       2   11829   11838       2   11841   11850       2
   11853   11862       2   11865   11874       2   11877   11886       2   11889
   11898       2   11901   11910       2   11913   11922       2   11925   11934
       2   11937   11946       2   11949   11958       2   11961   11970       2
   11973   11982       2   11985   11994       2   11997   12006       2   12009
   12018       2   12021   12030       2   12033   12042       2   12045   12054
       2   12057   12066       2   12069   12078       2   12081   12090       2
   12093   12102       2   12105   12114       2   12117   12126       2   12129
   12138       2   12141   12150       2   12153   12162       2   12165   12174
       2   12177   12186       2   12189   12198       2   12201   12210       2
   12213   12222       2   12225   12234       2   12237   12246       2   12249
   12258       2   12261   12270       2   12273   12282       2   12285   12294
       2   12297   12306       2   12309   12318       2   12321   12330       2
   12333   12342       2   12345   12354       2   12357   12366       2   12369
   12378       2   12381   12390       2   12393   12402       2   12405   12414
       2   12417   12426       2   12429   12438       2   12441   12450       2
   12453   12462       2   12465   12474       2   12477   12486       2   12489
   12498       2   12501   12510       2   12513   12522       2   12525   12534
       2   12537   12546       2   12549   12558       2   12561   12570       2
   12573   12582       2   12585   12594       2   12597   12606       2   12609
   12618       2   12621   12630       2   12633   12642       2   12645   12654
       2   12657   12666       2   12669   12678       2   12681   12690       2
   12693   12702       2   12705   12714       2   12717   12726       2   12729
   12738       2   12741   12750       2   12753   12762       2   12765   12774
       2   12777   12786       2   12789   12798       2   12801   12810       2
   12813   12822       2   12825   12834       2   12837   12846       2   12849
   12858       2   12861   12870       2   12873   12882       2   12885   12894
       2   12897   12906       2   12909   12918       2   12921   12930       2
   12933   12942       2   12945   12954       2   12957   12966       2   12969
   12978       2   12981   12990       2   12993   13002       2   13005   13014
       2   13017   13026       2   13029   13038       2   13041   13050       2
   13053   13062       2   13065   13074       2   13077   13086       2   13089
   13098       2   13101   13110       2   13113   13122       2   13125   13134
       2   13137   13146       2   13149   13158       2   13161   13170       2
   13173   13182       2   13185   13194       2   13197   13206       2   13209
   13218       2   13221   13230       2   13233   13242       2   13245   13254
       2   13257   13266       2   13269   13278       2   13281   13290       2
   13293   13302       2   13305   13314       2   13317   13326       2   13329
   13338       2   13341   13350       2   13353   13362       2   13365   13374
       2   13377   13386       2   13389   13398       2   13401   13410       2
   13413   13422       2   13425   13434       2   13437   13446       2   13449
   13458       2   13461   13470       2   13473   13482       2   13485   13494
       2   13497   13506       2   13509   13518       2   13521   13530       2
   13533   13542       2   13545   13554       2   13557   13566       2   13569
   13578       2   13581   13590       2   13593   13602       2   13605   13614
       2   13617   13626       2   13629   13638       2   13641   13650       2
   13653   13662       2   13665   13674       2   13677   13686       2   13689
   13698       2   13701   13710       2   13713   13722       2   13725   13734
       2   13737   13746       2   13749   13758       2   13761   13770       2
   13773   13782       2   13785   13794       2   13797   13806       2   13809
   13818       2   13821   13830       2   13833   13842       2   13845   13854
       2   13857   13866       2   13869   13878       2   13881   13890       2
   13893   13902       2   13905   13914       2   13917   13926       2   13929
   13938       2   13941   13950       2   13953   13962       2   13965   13974
       2   13977   13986       2   13989   13998       2   14001   14010       2
   14013   14022       2   14025   14034       2   14037   14046       2   14049
   14058       2   14061   14070       2   14073   14082       2   14085   14094
       2   14097   14106       2   14109   14118       2   14121   14130       2
   14133   14142       2   14145   14154       2   14157   14166       2   14169
   14178       2   14181   14190       2   14193   14202       2   14205   14214
       2   14217   14226       2   14229   14238       2   14241   14250       2
   14253   14262       2   14265   14274       2   14277   14286       2   14289
   14298       2   14301   14310       2   14313   14322       2   14325   14334
       2   14337   14346       2   14349   14358       2   14361   14370       2
   14373   14382       2   14385   14394       2   14397   14406       2   14409
   14418       2   14421   14430       2   14433   14442       2   14445   14454
       2   14457   14466       2   14469   14478       2   14481   14490       2
   14493   14502       2   14505   14514       2   14517   14526       2   14529
   14538       2   14541   14550       2   14553   14562       2   14565   14574
       2   14577   14586       2   14589   14598       2   14601   14610       2
   14613   14622       2   14625   14634       2   14637   14646       2   14649
   14658       2   14661   14670       2   14673   14682       2   14685   14694
       2   14697   14706       2   14709   14718       2   14721   14730       2
   14733   14742       2   14745   14754       2   14757   14766       2   14769
   14778       2   14781   14790       2   14793   14802       2   14805   14814
       2   14817   14826       2   14829   14838       2   14841   14850       2
   14853   14862       2   14865   14874       2   14877   14886       2   14889
   14898       2   14901   14910       2   14913   14922       2   14925   14934
       2   14937   14946       2   14949   14958       2   14961   14970       2
   14973   14982       2   14985   14994       2   14997   15006       2   15009
   15018       2   15021   15030       2   15033   15042       2   15045   15054
       2   15057   15066       2   15069   15078       2   15081   15090       2
   15093   15102       2   15105   15114       2   15117   15126       2   15129
   15138       2   15141   15150       2   15153   15162       2   15165   15174
       2   15177   15186       2   15189   15198       2   15201   15210       2
   15213   15222       2   15225   15234       2   15237   15246       2   15249
   15258       2   15261   15270       2   15273   15282       2   15285   15294
       2   15297   15306       2   15309   15318       2   15321   15330       2
   15333   15342       2   15345   15354       2   15357   15366       2   15369
   15378       2   15381   15390       2   15393   15402       2   15405   15414
       2   15417   15426       2   15429   15438       2   15441   15450       2
   15453   15462       2   15465   15474       2   15477   15486       2   15489
   15498       2   15501   15510       2   15513   15522       2   15525   15534
       2   15537   15546       2   15549   15558       2   15561   15570       2
   15573   15582       2   15585   15594       2   15597   15606       2   15609
   15618       2   15621   15630       2   15633   15642       2   15645   15654
       2   15657   15666       2   15669   15678       2   15681   15690       2
   15693   15702       2   15705   15714       2   15717   15726       2   15729
   15738       2   15741   15750       2   15753   15762       2   15765   15774
       2   15777   15786       2   15789   15798       2   15801   15810       2
   15813   15822       2   15825   15834       2   15837   15846       2   15849
   15858       2   15861   15870       2   15873   15882       2   15885   15894
       2   15897   15906       2   15909   15918       2   15921   15930       2
   15933   15942       2   15945   15954       2   15957   15966       2   15969
   15978       2   15981   15990       2   15993   16002       2   16005   16014
       2   16017   16026       2   16029   16038       2   16041   16050       2
   16053   16062       2   16065   16074       2   16077   16086       2   16089
   16098       2   16101   16110       2   16113   16122       2   16125   16134
       2   16137   16146       2   16149   16158       2   16161   16170       2
   16173   16182       2   16185   16194       2   16197   16206       2   16209
   16218       2   16221   16230       2   16233   16242       2   16245   16254
       2   16257   16266       2   16269   16278       2   16281   16290       2
   16293   16302       2   16305   16314       2   16317   16326       2   16329
   16338       2   16341   16350       2   16353   16362       2   16365   16374
       2   16377   16386       2   16389   16398       2   16401   16410       2
   16413   16422       2   16425   16434       2   16437   16446       2   16449
   16458       2   16461   16470       2   16473   16482       2   16485   16494
       2   16497   16506       2   16509   16518       2   16521   16530       2
   16533   16542       2   16545   16554       2   16557   16566       2   16569
   16578       2   16581   16590       2   16593   16602       2   16605   16614
       2   16617   16626       2   16629   16638       2   16641   16650       2
   16653   16662       2   16665   16674       2   16677   16686       2   16689
   16698       2   16701   16710       2   16713   16722       2   16725   16734
       2   16737   16746       2   16749   16758       2   16761   16770       2
   16773   16782       2   16785   16794       2   16797   16806       2   16809
   16818       2   16821   16830       2   16833   16842       2   16845   16854
       2   16857   16866       2   16869   16878       2   16881   16890       2
   16893   16902       2   16905   16914       2   16917   16926       2   16929
   16938       2   16941   16950       2   16953   16962       2   16965   16974
       2   16977   16986       2   16989   16998       2   17001   17010       2
   17013   17022       2   17025   17034       2   17037   17046       2   17049
   17058       2   17061   17070       2   17073   17082       2   17085   17094
       2   17097   17106       2   17109   17118       2   17121   17130       2
   17133   17142       2   17145   17154       2   17157   17166       2   17169
   17178       2   17181   17190       2   17193   17202       2   17205   17214
       2   17217   17226       2   17229   17238       2   17241   17250       2
   17253   17262       2   17265   17274       2   17277   17286       2   17289
   17298       2   17301   17310       2   17313   17322       2   17325   17334
       2   17337   17346       2   17349   17358       2   17361   17370       2
   17373   17382       2   17385   17394       2   17397   17406       2   17409
   17418       2   17421   17430       2   17433   17442       2   17445   17454
       2   17457   17466       2   17469   17478       2   17481   17490       2
   17493   17502       2   17505   17514       2   17517   17526       2   17529
   17538       2   17541   17550       2   17553   17562       2   17565   17574
       2   17577   17586       2   17589   17598       2   17601   17610       2
   17613   17622       2   17625   17634       2   17637   17646       2   17649
   17658       2   17661   17670       2   17673   17682       2   17685   17694
       2   17697   17706       2   17709   17718       2   17721   17730       2
   17733   17742       2   17745   17754       2   17757   17766       2   17769
   17778       2   17781   17790       2   17793   17802       2   17805   17814
       2   17817   17826       2   17829   17838       2   17841   17850       2
   17853   17862       2   17865   17874       2   17877   17886       2   17889
   17898       2   17901   17910       2   17913   17922       2   17925   17934
       2   17937   17946       2   17949   17958       2   17961   17970       2
   17973   17982       2   17985   17994       2   17997   18006       2   18009
   18018       2   18021   18030       2   18033   18042       2   18045   18054
       2   18057   18066       2   18069   18078       2   18081   18090       2
   18093   18102       2   18105   18114       2   18117   18126       2   18129
   18138       2   18141   18150       2   18153   18162       2   18165   18174
       2   18177   18186       2   18189   18198       2   18201   18210       2
   18213   18222       2   18225   18234       2   18237   18246       2   18249
   18258       2   18261   18270       2   18273   18282       2   18285   18294
       2   18297   18306       2   18309   18318       2   18321   18330       2
   18333   18342       2   18345   18354       2   18357   18366       2   18369
   18378       2   18381   18390       2   18393   18402       2   18405   18414
       2   18417   18426       2   18429   18438       2   18441   18450       2
   18453   18462       2   18465   18474       2   18477   18486       2   18489
   18498       2   18501   18510       2   18513   18522       2   18525   18534
       2   18537   18546       2   18549   18558       2   18561   18570       2
   18573   18582       2   18585   18594       2   18597   18606       2   18609
   18618       2   18621   18630       2   18633   18642       2   18645   18654
       2   18657   18666       2   18669   18678       2   18681   18690       2
   18693   18702       2   18705   18714       2   18717   18726       2   18729
   18738       2   18741   18750       2   18753   18762       2   18765   18774
       2   18777   18786       2   18789   18798       2   18801   18810       2
   18813   18822       2   18825   18834       2   18837   18846       2   18849
   18858       2   18861   18870       2   18873   18882       2   18885   18894
       2   18897   18906       2   18909   18918       2   18921   18930       2
   18933   18942       2   18945   18954       2   18957   18966       2   18969
   18978       2   18981   18990       2   18993   19002       2   19005   19014
       2   19017   19026       2   19029   19038       2   19041   19050       2
   19053   19062       2   19065   19074       2   19077   19086       2   19089
   19098       2   19101   19110       2   19113   19122       2   19125   19134
       2   19137   19146       2   19149   19158       2   19161   19170       2
   19173   19182       2   19185   19194       2   19197   19206       2   19209
   19218       2   19221   19230       2   19233   19242       2   19245   19254
       2   19257   19266       2   19269   19278       2   19281   19290       2
   19293   19302       2   19305   19314       2   19317   19326       2   19329
   19338       2   19341   19350       2   19353   19362       2   19365   19374
       2   19377   19386       2   19389   19398       2   19401   19410       2
   19413   19422       2   19425   19434       2   19437   19446       2   19449
   19458       2   19461   19470       2   19473   19482       2   19485   19494
       2   19497   19506       2   19509   19518       2   19521   19530       2
   19533   19542       2   19545   19554       2   19557   19566       2   19569
   19578       2   19581   19590       2   19593   19602       2   19605   19614
       2   19617   19626       2   19629   19638       2   19641   19650       2
   19653   19662       2   19665   19674       2   19677   19686       2   19689
   19698       2   19701   19710       2   19713   19722       2   19725   19734
       2   19737   19746       2   19749   19758       2   19761   19770       2
   19773   19782       2   19785   19794       2   19797   19806       2   19809
   19818       2   19821   19830       2   19833   19842       2   19845   19854
       2   19857   19866       2   19869   19878       2   19881   19890       2
   19893   19902       2   19905   19914       2   19917   19926       2   19929
   19938       2   19941   19950       2   19953   19962       2   19965   19974
       2   19977   19986       2   19989   19998       2   20001   20010       2
   20013   20022       2   20025   20034       2   20037   20046       2   20049
   20058       2   20061   20070       2   20073   20082       2   20085   20094
       2   20097   20106       2   20109   20118       2   20121   20130       2
   20133   20142       2   20145   20154       2   20157   20166       2   20169
   20178       2   20181   20190       2   20193   20202       2   20205   20214
       2   20217   20226       2   20229   20238       2   20241   20250       2
   20253   20262       2   20265   20274       2   20277   20286       2   20289
   20298       2   20301   20310       2   20313   20322       2   20325   20334
       2   20337   20346       2   20349   20358       2   20361   20370       2
   20373   20382       2   20385   20394       2   20397   20406       2   20409
   20418       2   20421   20430       2   20433   20442       2   20445   20454
       2   20457   20466       2   20469   20478       2   20481   20490       2
   20493   20502       2   20505   20514       2   20517   20526       2   20529
   20538       2   20541   20550       2   20553   20562       2   20565   20574
       2   20577   20586       2   20589   20598       2   20601   20610       2
   20613   20622       2   20625   20634       2   20637   20646       2   20649
   20658       2   20661   20670       2   20673   20682       2   20685   20694
       2   20697   20706       2   20709   20718       2   20721   20730       2
   20733   20742       2   20745   20754       2   20757   20766       2   20769
   20778       2   20781   20790       2   20793   20802       2   20805   20814
       2   20817   20826       2   20829   20838       2   20841   20850       2
   20853   20862       2   20865   20874       2   20877   20886       2   20889
   20898       2   20901   20910       2   20913   20922       2   20925   20934
       2   20937   20946       2   20949   20958       2   20961   20970       2
   20973   20982       2   20985   20994       2   20997   21006       2   21009
   21018       2   21021   21030       2   21033   21042       2   21045   21054
       2   21057   21066       2   21069   21078       2   21081   21090       2
   21093   21102       2   21105   21114       2   21117   21126       2   21129
   21138       2   21141   21150       2   21153   21162       2   21165   21174
       2   21177   21186       2   21189   21198       2   21201   21210       2
   21213   21222       2   21225   21234       2   21237   21246       2   21249
   21258       2   21261   21270       2   21273   21282       2   21285   21294
       2   21297   21306       2   21309   21318       2   21321   21330       2
   21333   21342       2   21345   21354       2   21357   21366       2   21369
   21378       2   21381   21390       2   21393   21402       2   21405   21414
       2   21417   21426       2   21429   21438       2   21441   21450       2
   21453   21462       2   21465   21474       2   21477   21486       2   21489
   21498       2   21501   21510       2   21513   21522       2   21525   21534
       2   21537   21546       2   21549   21558       2   21561   21570       2
   21573   21582       2   21585   21594       2   21597   21606       2   21609
   21618       2   21621   21630       2   21633   21642       2   21645   21654
       2   21657   21666       2   21669   21678       2   21681   21690       2
   21693   21702       2   21705   21714       2   21717   21726       2   21729
   21738       2   21741   21750       2   21753   21762       2   21765   21774
       2   21777   21786       2   21789   21798       2   21801   21810       2
   21813   21822       2   21825   21834       2   21837   21846       2   21849
   21858       2   21861   21870       2   21873   21882       2   21885   21894
       2   21897   21906       2   21909   21918       2   21921   21930       2
   21933   21942       2   21945   21954       2   21957   21966       2   21969
   21978       2   21981   21990       2   21993   22002       2   22005   22014
       2   22017   22026       2   22029   22038       2   22041   22050       2
   22053   22062       2   22065   22074       2   22077   22086       2   22089
   22098       2   22101   22110       2   22113   22122       2   22125   22134
       2   22137   22146       2   22149   22158       2   22161   22170       2
   22173   22182       2   22185   22194       2   22197   22206       2   22209
   22218       2   22221   22230       2   22233   22242       2   22245   22254
       2   22257   22266       2   22269   22278       2   22281   22290       2
   22293   22302       2   22305   22314       2   22317   22326       2   22329
   22338       2   22341   22350       2   22353   22362       2   22365   22374
       2   22377   22386       2   22389   22398       2   22401   22410       2
   22413   22422       2   22425   22434       2   22437   22446       2   22449
   22458       2   22461   22470       2   22473   22482       2   22485   22494
       2   22497   22506       2   22509   22518       2   22521   22530       2
   22533   22542       2   22545   22554       2   22557   22566       2   22569
   22578       2   22581   22590       2   22593   22602       2   22605   22614
       2   22617   22626       2   22629   22638       2   22641   22650       2
   22653   22662       2   22665   22674       2   22677   22686       2   22689
   22698       2   22701   22710       2   22713   22722       2   22725   22734
       2   22737   22746       2   22749   22758       2   22761   22770       2
   22773   22782       2   22785   22794       2   22797   22806       2   22809
   22818       2   22821   22830       2   22833   22842       2   22845   22854
       2   22857   22866       2   22869   22878       2   22881   22890       2
   22893   22902       2   22905   22914       2   22917   22926       2   22929
   22938       2   22941   22950       2   22953   22962       2   22965   22974
       2   22977   22986       2   22989   22998       2   23001   23010       2
   23013   23022       2   23025   23034       2   23037   23046       2   23049
   23058       2   23061   23070       2   23073   23082       2   23085   23094
       2   23097   23106       2   23109   23118       2   23121   23130       2
   23133   23142       2   23145   23154       2   23157   23166       2   23169
   23178       2   23181   23190       2   23193   23202       2   23205   23214
       2   23217   23226       2   23229   23238       2   23241   23250       2
   23253   23262       2   23265   23274       2   23277   23286       2   23289
   23298       2   23301   23310       2   23313   23322       2   23325   23334
       2   23337   23346       2   23349   23358       2   23361   23370       2
   23373   23382       2   23385   23394       2   23397   23406       2   23409
   23418       2   23421   23430       2   23433   23442       2   23445   23454
       2   23457   23466       2   23469   23478       2   23481   23490       2
   23493   23502       2   23505   23514       2   23517   23526       2   23529
   23538       2   23541   23550       2   23553   23562       2   23565   23574
       2   23577   23586       2   23589   23598       2   23601   23610       2
   23613   23622       2   23625   23634       2   23637   23646       2   23649
   23658       2   23661   23670       2   23673   23682       2   23685   23694
       2   23697   23706       2   23709   23718       2   23721   23730       2
   23733   23742       2   23745   23754       2   23757   23766       2   23769
   23778       2   23781   23790       2   23793   23802       2   23805   23814
       2   23817   23826       2   23829   23838       2   23841   23850       2
   23853   23862       2   23865   23874       2   23877   23886       2   23889
   23898       2   23901   23910       2   23913   23922       2   23925   23934
       2   23937   23946       2   23949   23958       2   23961   23970       2
   23973   23982       2   23985   23994       2   23997   24006       2   24009
   24018       2   24021   24030       2   24033   24042       2   24045   24054
       2   24057   24066       2   24069   24078       2   24081   24090       2
   24093   24102       2   24105   24114       2   24117   24126       2   24129
   24138       2   24141   24150       2   24153   24162       2   24165   24174
       2   24177   24186       2   24189   24198       2   24201   24210       2
   24213   24222       2   24225   24234       2   24237   24246       2   24249
   24258       2   24261   24270       2   24273   24282       2   24285   24294
       2   24297   24306       2   24309   24318       2   24321   24330       2
   24333   24342       2   24345   24354       2   24357   24366       2   24369
   24378       2   24381   24390       2   24393   24402       2   24405   24414
       2   24417   24426       2   24429   24438       2   24441   24450       2
   24453   24462       2   24465   24474       2   24477   24486       2   24489
   24498       2   24501   24510       2   24513   24522       2   24525   24534
       2   24537   24546       2   24549   24558       2   24561   24570       2
   24573   24582       2   24585   24594       2   24597   24606       2   24609
   24618       2   24621   24630       2   24633   24642       2   24645   24654
       2   24657   24666       2   24669   24678       2   24681   24690       2
   24693   24702       2   24705   24714       2   24717   24726       2   24729
   24738       2   24741   24750       2   24753   24762       2   24765   24774
       2   24777   24786       2   24789   24798       2   24801   24810       2
   24813   24822       2   24825   24834       2   24837   24846       2   24849
   24858       2   24861   24870       2   24873   24882       2   24885   24894
       2   24897   24906       2   24909   24918       2   24921   24930       2
   24933   24942       2   24945   24954       2   24957   24966       2   24969
   24978       2   24981   24990       2   24993   25002       2   25005   25014
       2   25017   25026       2   25029   25038       2   25041   25050       2
   25053   25062       2   25065   25074       2   25077   25086       2   25089
   25098       2   25101   25110       2   25113   25122       2   25125   25134
       2   25137   25146       2   25149   25158       2   25161   25170       2
   25173   25182       2   25185   25194       2   25197   25206       2   25209
   25218       2   25221   25230       2   25233   25242       2   25245   25254
       2   25257   25266       2   25269   25278       2   25281   25290       2
   25293   25302       2   25305   25314       2   25317   25326       2   25329
   25338       2   25341   25350       2   25353   25362       2   25365   25374
       2   25377   25386       2   25389   25398       2   25401   25410       2
   25413   25422       2   25425   25434       2   25437   25446       2   25449
   25458       2   25461   25470       2   25473   25482       2   25485   25494
       2   25497   25506       2   25509   25518       2   25521   25530       2
   25533   25542       2   25545   25554       2   25557   25566       2   25569
   25578       2   25581   25590       2   25593   25602       2   25605   25614
       2   25617   25626       2   25629   25638       2   25641   25650       2
   25653   25662       2   25665   25674       2   25677   25686       2   25689
   25698       2   25701   25710       2   25713   25722       2   25725   25734
       2   25737   25746       2   25749   25758       2   25761   25770       2
   25773   25782       2   25785   25794       2   25797   25806       2   25809
   25818       2   25821   25830       2   25833   25842       2   25845   25854
       2   25857   25866       2   25869   25878       2   25881   25890       2
   25893   25902       2   25905   25914       2   25917   25926       2   25929
   25938       2   25941   25950       2   25953   25962       2   25965   25974
       2   25977   25986       2   25989   25998       2   26001   26010       2
   26013   26022       2   26025   26034       2   26037   26046       2   26049
   26058       2   26061   26070       2   26073   26082       2   26085   26094
       2   26097   26106       2   26109   26118       2   26121   26130       2
   26133   26142       2   26145   26154       2   26157   26166       2   26169
   26178       2   26181   26190       2   26193   26202       2   26205   26214
       2   26217   26226       2   26229   26238       2   26241   26250       2
   26253   26262       2      66      69       5      63      66       7      60
      63       8      57      60       9      57      69       5      54      57
      10      45      48      12      45      51      13      42      45      14
      39      42      16      39      54      17      36      39      16      33
      36      14      33      60      18      30      33      13
%FLAG ANGLES_INC_HYDROGEN                                                       
%FORMAT(10I8)                                                                   
      81      48      84       1      78      48      81       1      78      48
      84       1      69      66      87       2      66      69      90       3
      63      66      87       5      57      69      90       3      45      42
      75      13      45      48      78      14      45      48      81      14
      45      48      84      14      39      36      72      18      39      42
      75      18      33      36      72      13
%FLAG ANGLES_WITHOUT_HYDROGEN                                                   
%FORMAT(10I8)                                                                   
      63      66      69       4      60      57      69       6      60      63
      66       7      57      60      63       8      57      69      66       9
      54      57      60      10      54      57      69      11      48      45
      51      12      42      39      54      15      42      45      48      16
      42      45      51      17      39      42      45      19      39      54
      57      20      36      33      60      21      36      39      42      22
      36      39      54      15      33      36      39      19      33      60
      57      23      33      60      63      24      30      33      36      17
      30      33      60      25
%FLAG DIHEDRALS_INC_HYDROGEN                                                    
%FORMAT(10I8)                                                                   
      87      66      69      90       1      63      66      69      90       1
      60      33      36      72       3      60      57      69      90       1
      60      63      66      87       4      57      69      66      87       1
      54      39      36      72       5      54      39      42      75       5
      54      57      69      90       1      51      45      42      75       6
      51      45     -42      75       3      51      45      48      78       7
      51      45     -48      78       8      51      45      48      81       7
      51      45     -48      81       8      51      45      48      84       7
      51      45     -48      84       8      48      45      42      75       3
      42      39      36      72       5      42      45      48      78       9
      42      45      48      81       9      42      45      48      84       9
      36      39      42      75       5      30      33      36      72       6
      30      33     -36      72       3      57      66     -69     -90      12
      87      69     -66     -63      12      45      39     -42     -75      12
      33      39     -36     -72      12
%FLAG DIHEDRALS_WITHOUT_HYDROGEN                                                
%FORMAT(10I8)                                                                   
      63      60     -57      69       2      60      57     -69      66       1
      60      63     -66      69       4      57      60     -63      66       4
      57      69     -66      63       1      54      57      60      63       2
      54      57      69      66       1      45      42      39      54       5
      42      39      54      57       4      39      36      33      60       3
      39      42      45      48      10      39      42      45      51       3
      39      54     -57      60       4      39      54      57      69       4
      36      33      60      57      11      36      33      60      63      11
      36      39      42      45       5      36      39     -54      57       4
      33      36      39      42       5      33      36      39      54       5
      33      60     -57      54       2      33      60      57      69       2
      33      60      63      66       4      30      33      36      39       3
      30      33      60      57      11      30      33      60      63      11
      33      57     -60     -63      12      60      69     -57     -54      12
      48      42     -45     -51      13      54      36     -39     -42      12
      60      36     -33     -30      13
%FLAG EXCLUDED_ATOMS_LIST                                                       
%FORMAT(10I8)                                                                   
       0       0       0       0       0       0       0       0       0       0
      12      13      14      20      21      22      25      13      14      15
      19      20      21      22      23      24      25      14      15      16
      19      20      21      22      25      26      15      16      17      18
      19      20      21      24      25      26      16      17      18      19
      20      25      26      27      28      29      17      18      19      26
      27      28      29      18      26      27      28      29      26      27
      28      29      20      21      22      23      24      25      26      31
      21      22      23      24      30      31      22      23      24      25
      30      31      23      24      30      31      24      30      31      30
      31       0       0      28      29      29       0      31       0      33
      34      35      34      35      35       0      37      38      39      38
      39      39       0      41      42      43      42      43      43       0
      45      46      47      46      47      47       0      49      50      51
      50      51      51       0      53      54      55      54      55      55
       0      57      58      59      58      59      59       0      61      62
      63      62      63      63       0      65      66      67      66      67
      67       0      69      70      71      70      71      71       0      73
      74      75      74      75      75       0      77      78      79      78
      79      79       0      81      82      83      82      83      83       0
      85      86      87      86      87      87       0      89      90      91
      90      91      91       0      93      94      95      94      95      95
       0      97      98      99      98      99      99       0     101     102
     103     102     103     103       0     105     106     107     106     107
     107       0     109     110     111     110     111     111       0     113
     114     115     114     115     115       0     117     118     119     118
     119     119       0     121     122     123     122     123     123       0
     125     126     127     126     127     127       0     129     130     131
     130     131     131       0     133     134     135     134     135     135
       0     137     138     139     138     139     139       0     141     142
     143     142     143     143       0     145     146     147     146     147
     147       0     149     150     151     150     151     151       0     153
     154     155     154     155     155       0     157     158     159     158
     159     159       0     161     162     163     162     163     163       0
     165     166     167     166     167     167       0     169     170     171
     170     171     171       0     173     174     175     174     175     175
       0     177     178     179     178     179     179       0     181     182
     183     182     183     183       0     185     186     187     186     187
     187       0     189     190     191     190     191     191       0     193
     194     195     194     195     195       0     197     198     199     198
     199     199       0     201     202     203     202     203     203       0
     205     206     207     206     207     207       0     209     210     211
     210     211     211       0     213     214     215     214     215     215
       0     217     218     219     218     219     219       0     221     222
     223     222     223     223       0     225     226     227     226     227
     227       0     229     230     231     230     231     231       0     233
     234     235     234     235     235       0     237     238     239     238
     239     239       0     241     242     243     242     243     243       0
     245     246     247     246     247     247       0     249     250     251
     250     251     251       0     253     254     255     254     255     255
       0     257     258     259     258     259     259       0     261     262
     263     262     263     263       0     265     266     267     266     267
     267       0     269     270     271     270     271     271       0     273
     274     275     274     275     275       0     277     278     279     278
     279     279       0     281     282     283     282     283     283       0
     285     286     287     286     287     287       0     289     290     291
     290     291     291       0     293     294     295     294     295     295
       0     297     298     299     298     299     299       0     301     302
     303     302     303     303       0     305     306     307     306     307
     307       0     309     310     311     310     311     311       0     313
     314     315     314     315     315       0     317     318     319     318
     319     319       0     321     322     323     322     323     323       0
     325     326     327     326     327     327       0     329     330     331
     330     331     331       0     333     334     335     334     335     335
       0     337     338     339     338     339     339       0     341     342
     343     342     343     343       0     345     346     347     346     347
     347       0     349     350     351     350     351     351       0     353
     354     355     354     355     355       0     357     358     359     358
     359     359       0     361     362     363     362     363     363       0
     365     366     367     366     367     367       0     369     370     371
     370     371     371       0     373     374     375     374     375     375
       0     377     378     379     378     379     379       0     381     382
     383     382     383     383       0     385     386     387     386     387
     387       0     389     390     391     390     391     391       0     393
     394     395     394     395     395       0     397     398     399     398
     399     399       0     401     402     403     402     403     403       0
     405     406     407     406     407     407       0     409     410     411
     410     411     411       0     413     414     415     414     415     415
       0     417     418     419     418     419     419       0     421     422
     423     422     423     423       0     425     426     427     426     427
     427       0     429     430     431     430     431     431       0     433
     434     435     434     435     435       0     437     438     439     438
     439     439       0     441     442     443     442     443     443       0
     445     446     447     446     447     447       0     449     450     451
     450     451     451       0     453     454     455     454     455     455
       0     457     458     459     458     459     459       0     461     462
     463     462     463     463       0     465     466     467     466     467
     467       0     469     470     471     470     471     471       0     473
     474     475     474     475     475       0     477     478     479     478
     479     479       0     481     482     483     482     483     483       0
     485     486     487     486     487     487       0     489     490     491
     490     491     491       0     493     494     495     494     495     495
       0     497     498     499     498     499     499       0     501     502
     503     502     503     503       0     505     506     507     506     507
     507       0     509     510     511     510     511     511       0     513
     514     515     514     515     515       0     517     518     519     518
     519     519       0     521     522     523     522     523     523       0
     525     526     527     526     527     527       0     529     530     531
     530     531     531       0     533     534     535     534     535     535
       0     537     538     539     538     539     539       0     541     542
     543     542     543     543       0     545     546     547     546     547
     547       0     549     550     551     550     551     551       0     553
     554     555     554     555     555       0     557     558     559     558
     559     559       0     561     562     563     562     563     563       0
     565     566     567     566     567     567       0     569     570     571
     570     571     571       0     573     574     575     574     575     575
       0     577     578     579     578     579     579       0     581     582
     583     582     583     583       0     585     586     587     586     587
     587       0     589     590     591     590     591     591       0     593
     594     595     594     595     595       0     597     598     599     598
     599     599       0     601     602     603     602     603     603       0
     605     606     607     606     607     607       0     609     610     611
     610     611     611       0     613     614     615     614     615     615
       0     617     618     619     618     619     619       0     621     622
     623     622     623     623       0     625     626     627     626     627
     627       0     629     630     631     630     631     631       0     633
     634     635     634     635     635       0     637     638     639     638
     639     639       0     641     642     643     642     643     643       0
     645     646     647     646     647     647       0     649     650     651
     650     651     651       0     653     654     655     654     655     655
       0     657     658     659     658     659     659       0     661     662
     663     662     663     663       0     665     666     667     666     667
     667       0     669     670     671     670     671     671       0     673
     674     675     674     675     675       0     677     678     679     678
     679     679       0     681     682     683     682     683     683       0
     685     686     687     686     687     687       0     689     690     691
     690     691     691       0     693     694     695     694     695     695
       0     697     698     699     698     699     699       0     701     702
     703     702     703     703       0     705     706     707     706     707
     707       0     709     710     711     710     711     711       0     713
     714     715     714     715     715       0     717     718     719     718
     719     719       0     721     722     723     722     723     723       0
     725     726     727     726     727     727       0     729     730     731
     730     731     731       0     733     734     735     734     735     735
       0     737     738     739     738     739     739       0     741     742
     743     742     743     743       0     745     746     747     746     747
     747       0     749     750     751     750     751     751       0     753
     754     755     754     755     755       0     757     758     759     758
     759     759       0     761     762     763     762     763     763       0
     765     766     767     766     767     767       0     769     770     771
     770     771     771       0     773     774     775     774     775     775
       0     777     778     779     778     779     779       0     781     782
     783     782     783     783       0     785     786     787     786     787
     787       0     789     790     791     790     791     791       0     793
     794     795     794     795     795       0     797     798     799     798
     799     799       0     801     802     803     802     803     803       0
     805     806     807     806     807     807       0     809     810     811
     810     811     811       0     813     814     815     814     815     815
       0     817     818     819     818     819     819       0     821     822
     823     822     823     823       0     825     826     827     826     827
     827       0     829     830     831     830     831     831       0     833
     834     835     834     835     835       0     837     838     839     838
     839     839       0     841     842     843     842     843     843       0
     845     846     847     846     847     847       0     849     850     851
     850     851     851       0     853     854     855     854     855     855
       0     857     858     859     858     859     859       0     861     862
     863     862     863     863       0     865     866     867     866     867
     867       0     869     870     871     870     871     871       0     873
     874     875     874     875     875       0     877     878     879     878
     879     879       0     881     882     883     882     883     883       0
     885     886     887     886     887     887       0     889     890     891
     890     891     891       0     893     894     895     894     895     895
       0     897     898     899     898     899     899       0     901     902
     903     902     903     903       0     905     906     907     906     907
     907       0     909     910     911     910     911     911       0     913
     914     915     914     915     915       0     917     918     919     918
     919     919       0     921     922     923     922     923     923       0
     925     926     927     926     927     927       0     929     930     931
     930     931     931       0     933     934     935     934     935     935
       0     937     938     939     938     939     939       0     941     942
     943     942     943     943       0     945     946     947     946     947
     947       0     949     950     951     950     951     951       0     953
     954     955     954     955     955       0     957     958     959     958
     959     959       0     961     962     963     962     963     963       0
     965     966     967     966     967     967       0     969     970     971
     970     971     971       0     973     974     975     974     975     975
       0     977     978     979     978     979     979       0     981     982
     983     982     983     983       0     985     986     987     986     987
     987       0     989     990     991     990     991     991       0     993
     994     995     994     995     995       0     997     998     999     998
     999     999       0    1001    1002    1003    1002    1003    1003       0
    1005    1006    1007    1006    1007    1007       0    1009    1010    1011
    1010    1011    1011       0    1013    1014    1015    1014    1015    1015
       0    1017    1018    1019    1018    1019    1019       0    1021    1022
    1023    1022    1023    1023       0    1025    1026    1027    1026    1027
    1027       0    1029    1030    1031    1030    1031    1031       0    1033
    1034    1035    1034    1035    1035       0    1037    1038    1039    1038
    1039    1039       0    1041    1042    1043    1042    1043    1043       0
    1045    1046    1047    1046    1047    1047       0    1049    1050    1051
    1050    1051    1051       0    1053    1054    1055    1054    1055    1055
       0    1057    1058    1059    1058    1059    1059       0    1061    1062
    1063    1062    1063    1063       0    1065    1066    1067    1066    1067
    1067       0    1069    1070    1071    1070    1071    1071       0    1073
    1074    1075    1074    1075    1075       0    1077    1078    1079    1078
    1079    1079       0    1081    1082    1083    1082    1083    1083       0
    1085    1086    1087    1086    1087    1087       0    1089    1090    1091
    1090    1091    1091       0    1093    1094    1095    1094    1095    1095
       0    1097    1098    1099    1098    1099    1099       0    1101    1102
    1103    1102    1103    1103       0    1105    1106    1107    1106    1107
    1107       0    1109    1110    1111    1110    1111    1111       0    1113
    1114    1115    1114    1115    1115       0    1117    1118    1119    1118
    1119    1119       0    1121    1122    1123    1122    1123    1123       0
    1125    1126    1127    1126    1127    1127       0    1129    1130    1131
    1130    1131    1131       0    1133    1134    1135    1134    1135    1135
       0    1137    1138    1139    1138    1139    1139       0    1141    1142
    1143    1142    1143    1143       0    1145    1146    1147    1146    1147
    1147       0    1149    1150    1151    1150    1151    1151       0    1153
    1154    1155    1154    1155    1155       0    1157    1158    1159    1158
    1159    1159       0    1161    1162    1163    1162    1163    1163       0
    1165    1166    1167    1166    1167    1167       0    1169    1170    1171
    1170    1171    1171       0    1173    1174    1175    1174    1175    1175
       0    1177    1178    1179    1178    1179    1179       0    1181    1182
    1183    1182    1183    1183       0    1185    1186    1187    1186    1187
    1187       0    1189    1190    1191    1190    1191    1191       0    1193
    1194    1195    1194    1195    1195       0    1197    1198    1199    1198
    1199    1199       0    1201    1202    1203    1202    1203    1203       0
    1205    1206    1207    1206    1207    1207       0    1209    1210    1211
    1210    1211    1211       0    1213    1214    1215    1214    1215    1215
       0    1217    1218    1219    1218    1219    1219       0    1221    1222
    1223    1222    1223    1223       0    1225    1226    1227    1226    1227
    1227       0    1229    1230    1231    1230    1231    1231       0    1233
    1234    1235    1234    1235    1235       0    1237    1238    1239    1238
    1239    1239       0    1241    1242    1243    1242    1243    1243       0
    1245    1246    1247    1246    1247    1247       0    1249    1250    1251
    1250    1251    1251       0    1253    1254    1255    1254    1255    1255
       0    1257    1258    1259    1258    1259    1259       0    1261    1262
    1263    1262    1263    1263       0    1265    1266    1267    1266    1267
    1267       0    1269    1270    1271    1270    1271    1271       0    1273
    1274    1275    1274    1275    1275       0    1277    1278    1279    1278
    1279    1279       0    1281    1282    1283    1282    1283    1283       0
    1285    1286    1287    1286    1287    1287       0    1289    1290    1291
    1290    1291    1291       0    1293    1294    1295    1294    1295    1295
       0    1297    1298    1299    1298    1299    1299       0    1301    1302
    1303    1302    1303    1303       0    1305    1306    1307    1306    1307
    1307       0    1309    1310    1311    1310    1311    1311       0    1313
    1314    1315    1314    1315    1315       0    1317    1318    1319    1318
    1319    1319       0    1321    1322    1323    1322    1323    1323       0
    1325    1326    1327    1326    1327    1327       0    1329    1330    1331
    1330    1331    1331       0    1333    1334    1335    1334    1335    1335
       0    1337    1338    1339    1338    1339    1339       0    1341    1342
    1343    1342    1343    1343       0    1345    1346    1347    1346    1347
    1347       0    1349    1350    1351    1350    1351    1351       0    1353
    1354    1355    1354    1355    1355       0    1357    1358    1359    1358
    1359    1359       0    1361    1362    1363    1362    1363    1363       0
    1365    1366    1367    1366    1367    1367       0    1369    1370    1371
    1370    1371    1371       0    1373    1374    1375    1374    1375    1375
       0    1377    1378    1379    1378    1379    1379       0    1381    1382
    1383    1382    1383    1383       0    1385    1386    1387    1386    1387
    1387       0    1389    1390    1391    1390    1391    1391       0    1393
    1394    1395    1394    1395    1395       0    1397    1398    1399    1398
    1399    1399       0    1401    1402    1403    1402    1403    1403       0
    1405    1406    1407    1406    1407    1407       0    1409    1410    1411
    1410    1411    1411       0    1413    1414    1415    1414    1415    1415
       0    1417    1418    1419    1418    1419    1419       0    1421    1422
    1423    1422    1423    1423       0    1425    1426    1427    1426    1427
    1427       0    1429    1430    1431    1430    1431    1431       0    1433
    1434    1435    1434    1435    1435       0    1437    1438    1439    1438
    1439    1439       0    1441    1442    1443    1442    1443    1443       0
    1445    1446    1447    1446    1447    1447       0    1449    1450    1451
    1450    1451    1451       0    1453    1454    1455    1454    1455    1455
       0    1457    1458    1459    1458    1459    1459       0    1461    1462
    1463    1462    1463    1463       0    1465    1466    1467    1466    1467
    1467       0    1469    1470    1471    1470    1471    1471       0    1473
    1474    1475    1474    1475    1475       0    1477    1478    1479    1478
    1479    1479       0    1481    1482    1483    1482    1483    1483       0
    1485    1486    1487    1486    1487    1487       0    1489    1490    1491
    1490    1491    1491       0    1493    1494    1495    1494    1495    1495
       0    1497    1498    1499    1498    1499    1499       0    1501    1502
    1503    1502    1503    1503       0    1505    1506    1507    1506    1507
    1507       0    1509    1510    1511    1510    1511    1511       0    1513
    1514    1515    1514    1515    1515       0    1517    1518    1519    1518
    1519    1519       0    1521    1522    1523    1522    1523    1523       0
    1525    1526    1527    1526    1527    1527       0    1529    1530    1531
    1530    1531    1531       0    1533    1534    1535    1534    1535    1535
       0    1537    1538    1539    1538    1539    1539       0    1541    1542
    1543    1542    1543    1543       0    1545    1546    1547    1546    1547
    1547       0    1549    1550    1551    1550    1551    1551       0    1553
    1554    1555    1554    1555    1555       0    1557    1558    1559    1558
    1559    1559       0    1561    1562    1563    1562    1563    1563       0
    1565    1566    1567    1566    1567    1567       0    1569    1570    1571
    1570    1571    1571       0    1573    1574    1575    1574    1575    1575
       0    1577    1578    1579    1578    1579    1579       0    1581    1582
    1583    1582    1583    1583       0    1585    1586    1587    1586    1587
    1587       0    1589    1590    1591    1590    1591    1591       0    1593
    1594    1595    1594    1595    1595       0    1597    1598    1599    1598
    1599    1599       0    1601    1602    1603    1602    1603    1603       0
    1605    1606    1607    1606    1607    1607       0    1609    1610    1611
    1610    1611    1611       0    1613    1614    1615    1614    1615    1615
       0    1617    1618    1619    1618    1619    1619       0    1621    1622
    1623    1622    1623    1623       0    1625    1626    1627    1626    1627
    1627       0    1629    1630    1631    1630    1631    1631       0    1633
    1634    1635    1634    1635    1635       0    1637    1638    1639    1638
    1639    1639       0    1641    1642    1643    1642    1643    1643       0
    1645    1646    1647    1646    1647    1647       0    1649    1650    1651
    1650    1651    1651       0    1653    1654    1655    1654    1655    1655
       0    1657    1658    1659    1658    1659    1659       0    1661    1662
    1663    1662    1663    1663       0    1665    1666    1667    1666    1667
    1667       0    1669    1670    1671    1670    1671    1671       0    1673
    1674    1675    1674    1675    1675       0    1677    1678    1679    1678
    1679    1679       0    1681    1682    1683    1682    1683    1683       0
    1685    1686    1687    1686    1687    1687       0    1689    1690    1691
    1690    1691    1691       0    1693    1694    1695    1694    1695    1695
       0    1697    1698    1699    1698    1699    1699       0    1701    1702
    1703    1702    1703    1703       0    1705    1706    1707    1706    1707
    1707       0    1709    1710    1711    1710    1711    1711       0    1713
    1714    1715    1714    1715    1715       0    1717    1718    1719    1718
    1719    1719       0    1721    1722    1723    1722    1723    1723       0
    1725    1726    1727    1726    1727    1727       0    1729    1730    1731
    1730    1731    1731       0    1733    1734    1735    1734    1735    1735
       0    1737    1738    1739    1738    1739    1739       0    1741    1742
    1743    1742    1743    1743       0    1745    1746    1747    1746    1747
    1747       0    1749    1750    1751    1750    1751    1751       0    1753
    1754    1755    1754    1755    1755       0    1757    1758    1759    1758
    1759    1759       0    1761    1762    1763    1762    1763    1763       0
    1765    1766    1767    1766    1767    1767       0    1769    1770    1771
    1770    1771    1771       0    1773    1774    1775    1774    1775    1775
       0    1777    1778    1779    1778    1779    1779       0    1781    1782
    1783    1782    1783    1783       0    1785    1786    1787    1786    1787
    1787       0    1789    1790    1791    1790    1791    1791       0    1793
    1794    1795    1794    1795    1795       0    1797    1798    1799    1798
    1799    1799       0    1801    1802    1803    1802    1803    1803       0
    1805    1806    1807    1806    1807    1807       0    1809    1810    1811
    1810    1811    1811       0    1813    1814    1815    1814    1815    1815
       0    1817    1818    1819    1818    1819    1819       0    1821    1822
    1823    1822    1823    1823       0    1825    1826    1827    1826    1827
    1827       0    1829    1830    1831    1830    1831    1831       0    1833
    1834    1835    1834    1835    1835       0    1837    1838    1839    1838
    1839    1839       0    1841    1842    1843    1842    1843    1843       0
    1845    1846    1847    1846    1847    1847       0    1849    1850    1851
    1850    1851    1851       0    1853    1854    1855    1854    1855    1855
       0    1857    1858    1859    1858    1859    1859       0    1861    1862
    1863    1862    1863    1863       0    1865    1866    1867    1866    1867
    1867       0    1869    1870    1871    1870    1871    1871       0    1873
    1874    1875    1874    1875    1875       0    1877    1878    1879    1878
    1879    1879       0    1881    1882    1883    1882    1883    1883       0
    1885    1886    1887    1886    1887    1887       0    1889    1890    1891
    1890    1891    1891       0    1893    1894    1895    1894    1895    1895
       0    1897    1898    1899    1898    1899    1899       0    1901    1902
    1903    1902    1903    1903       0    1905    1906    1907    1906    1907
    1907       0    1909    1910    1911    1910    1911    1911       0    1913
    1914    1915    1914    1915    1915       0    1917    1918    1919    1918
    1919    1919       0    1921    1922    1923    1922    1923    1923       0
    1925    1926    1927    1926    1927    1927       0    1929    1930    1931
    1930    1931    1931       0    1933    1934    1935    1934    1935    1935
       0    1937    1938    1939    1938    1939    1939       0    1941    1942
    1943    1942    1943    1943       0    1945    1946    1947    1946    1947
    1947       0    1949    1950    1951    1950    1951    1951       0    1953
    1954    1955    1954    1955    1955       0    1957    1958    1959    1958
    1959    1959       0    1961    1962    1963    1962    1963    1963       0
    1965    1966    1967    1966    1967    1967       0    1969    1970    1971
    1970    1971    1971       0    1973    1974    1975    1974    1975    1975
       0    1977    1978    1979    1978    1979    1979       0    1981    1982
    1983    1982    1983    1983       0    1985    1986    1987    1986    1987
    1987       0    1989    1990    1991    1990    1991    1991       0    1993
    1994    1995    1994    1995    1995       0    1997    1998    1999    1998
    1999    1999       0    2001    2002    2003    2002    2003    2003       0
    2005    2006    2007    2006    2007    2007       0    2009    2010    2011
    2010    2011    2011       0    2013    2014    2015    2014    2015    2015
       0    2017    2018    2019    2018    2019    2019       0    2021    2022
    2023    2022    2023    2023       0    2025    2026    2027    2026    2027
    2027       0    2029    2030    2031    2030    2031    2031       0    2033
    2034    2035    2034    2035    2035       0    2037    2038    2039    2038
    2039    2039       0    2041    2042    2043    2042    2043    2043       0
    2045    2046    2047    2046    2047    2047       0    2049    2050    2051
    2050    2051    2051       0    2053    2054    2055    2054    2055    2055
       0    2057    2058    2059    2058    2059    2059       0    2061    2062
    2063    2062    2063    2063       0    2065    2066    2067    2066    2067
    2067       0    2069    2070    2071    2070    2071    2071       0    2073
    2074    2075    2074    2075    2075       0    2077    2078    2079    2078
    2079    2079       0    2081    2082    2083    2082    2083    2083       0
    2085    2086    2087    2086    2087    2087       0    2089    2090    2091
    2090    2091    2091       0    2093    2094    2095    2094    2095    2095
       0    2097    2098    2099    2098    2099    2099       0    2101    2102
    2103    2102    2103    2103       0    2105    2106    2107    2106    2107
    2107       0    2109    2110    2111    2110    2111    2111       0    2113
    2114    2115    2114    2115    2115       0    2117    2118    2119    2118
    2119    2119       0    2121    2122    2123    2122    2123    2123       0
    2125    2126    2127    2126    2127    2127       0    2129    2130    2131
    2130    2131    2131       0    2133    2134    2135    2134    2135    2135
       0    2137    2138    2139    2138    2139    2139       0    2141    2142
    2143    2142    2143    2143       0    2145    2146    2147    2146    2147
    2147       0    2149    2150    2151    2150    2151    2151       0    2153
    2154    2155    2154    2155    2155       0    2157    2158    2159    2158
    2159    2159       0    2161    2162    2163    2162    2163    2163       0
    2165    2166    2167    2166    2167    2167       0    2169    2170    2171
    2170    2171    2171       0    2173    2174    2175    2174    2175    2175
       0    2177    2178    2179    2178    2179    2179       0    2181    2182
    2183    2182    2183    2183       0    2185    2186    2187    2186    2187
    2187       0    2189    2190    2191    2190    2191    2191       0    2193
    2194    2195    2194    2195    2195       0    2197    2198    2199    2198
    2199    2199       0    2201    2202    2203    2202    2203    2203       0
    2205    2206    2207    2206    2207    2207       0    2209    2210    2211
    2210    2211    2211       0    2213    2214    2215    2214    2215    2215
       0    2217    2218    2219    2218    2219    2219       0    2221    2222
    2223    2222    2223    2223       0    2225    2226    2227    2226    2227
    2227       0    2229    2230    2231    2230    2231    2231       0    2233
    2234    2235    2234    2235    2235       0    2237    2238    2239    2238
    2239    2239       0    2241    2242    2243    2242    2243    2243       0
    2245    2246    2247    2246    2247    2247       0    2249    2250    2251
    2250    2251    2251       0    2253    2254    2255    2254    2255    2255
       0    2257    2258    2259    2258    2259    2259       0    2261    2262
    2263    2262    2263    2263       0    2265    2266    2267    2266    2267
    2267       0    2269    2270    2271    2270    2271    2271       0    2273
    2274    2275    2274    2275    2275       0    2277    2278    2279    2278
    2279    2279       0    2281    2282    2283    2282    2283    2283       0
    2285    2286    2287    2286    2287    2287       0    2289    2290    2291
    2290    2291    2291       0    2293    2294    2295    2294    2295    2295
       0    2297    2298    2299    2298    2299    2299       0    2301    2302
    2303    2302    2303    2303       0    2305    2306    2307    2306    2307
    2307       0    2309    2310    2311    2310    2311    2311       0    2313
    2314    2315    2314    2315    2315       0    2317    2318    2319    2318
    2319    2319       0    2321    2322    2323    2322    2323    2323       0
    2325    2326    2327    2326    2327    2327       0    2329    2330    2331
    2330    2331    2331       0    2333    2334    2335    2334    2335    2335
       0    2337    2338    2339    2338    2339    2339       0    2341    2342
    2343    2342    2343    2343       0    2345    2346    2347    2346    2347
    2347       0    2349    2350    2351    2350    2351    2351       0    2353
    2354    2355    2354    2355    2355       0    2357    2358    2359    2358
    2359    2359       0    2361    2362    2363    2362    2363    2363       0
    2365    2366    2367    2366    2367    2367       0    2369    2370    2371
    2370    2371    2371       0    2373    2374    2375    2374    2375    2375
       0    2377    2378    2379    2378    2379    2379       0    2381    2382
    2383    2382    2383    2383       0    2385    2386    2387    2386    2387
    2387       0    2389    2390    2391    2390    2391    2391       0    2393
    2394    2395    2394    2395    2395       0    2397    2398    2399    2398
    2399    2399       0    2401    2402    2403    2402    2403    2403       0
    2405    2406    2407    2406    2407    2407       0    2409    2410    2411
    2410    2411    2411       0    2413    2414    2415    2414    2415    2415
       0    2417    2418    2419    2418    2419    2419       0    2421    2422
    2423    2422    2423    2423       0    2425    2426    2427    2426    2427
    2427       0    2429    2430    2431    2430    2431    2431       0    2433
    2434    2435    2434    2435    2435       0    2437    2438    2439    2438
    2439    2439       0    2441    2442    2443    2442    2443    2443       0
    2445    2446    2447    2446    2447    2447       0    2449    2450    2451
    2450    2451    2451       0    2453    2454    2455    2454    2455    2455
       0    2457    2458    2459    2458    2459    2459       0    2461    2462
    2463    2462    2463    2463       0    2465    2466    2467    2466    2467
    2467       0    2469    2470    2471    2470    2471    2471       0    2473
    2474    2475    2474    2475    2475       0    2477    2478    2479    2478
    2479    2479       0    2481    2482    2483    2482    2483    2483       0
    2485    2486    2487    2486    2487    2487       0    2489    2490    2491
    2490    2491    2491       0    2493    2494    2495    2494    2495    2495
       0    2497    2498    2499    2498    2499    2499       0    2501    2502
    2503    2502    2503    2503       0    2505    2506    2507    2506    2507
    2507       0    2509    2510    2511    2510    2511    2511       0    2513
    2514    2515    2514    2515    2515       0    2517    2518    2519    2518
    2519    2519       0    2521    2522    2523    2522    2523    2523       0
    2525    2526    2527    2526    2527    2527       0    2529    2530    2531
    2530    2531    2531       0    2533    2534    2535    2534    2535    2535
       0    2537    2538    2539    2538    2539    2539       0    2541    2542
    2543    2542    2543    2543       0    2545    2546    2547    2546    2547
    2547       0    2549    2550    2551    2550    2551    2551       0    2553
    2554    2555    2554    2555    2555       0    2557    2558    2559    2558
    2559    2559       0    2561    2562    2563    2562    2563    2563       0
    2565    2566    2567    2566    2567    2567       0    2569    2570    2571
    2570    2571    2571       0    2573    2574    2575    2574    2575    2575
       0    2577    2578    2579    2578    2579    2579       0    2581    2582
    2583    2582    2583    2583       0    2585    2586    2587    2586    2587
    2587       0    2589    2590    2591    2590    2591    2591       0    2593
    2594    2595    2594    2595    2595       0    2597    2598    2599    2598
    2599    2599       0    2601    2602    2603    2602    2603    2603       0
    2605    2606    2607    2606    2607    2607       0    2609    2610    2611
    2610    2611    2611       0    2613    2614    2615    2614    2615    2615
       0    2617    2618    2619    2618    2619    2619       0    2621    2622
    2623    2622    2623    2623       0    2625    2626    2627    2626    2627
    2627       0    2629    2630    2631    2630    2631    2631       0    2633
    2634    2635    2634    2635    2635       0    2637    2638    2639    2638
    2639    2639       0    2641    2642    2643    2642    2643    2643       0
    2645    2646    2647    2646    2647    2647       0    2649    2650    2651
    2650    2651    2651       0    2653    2654    2655    2654    2655    2655
       0    2657    2658    2659    2658    2659    2659       0    2661    2662
    2663    2662    2663    2663       0    2665    2666    2667    2666    2667
    2667       0    2669    2670    2671    2670    2671    2671       0    2673
    2674    2675    2674    2675    2675       0    2677    2678    2679    2678
    2679    2679       0    2681    2682    2683    2682    2683    2683       0
    2685    2686    2687    2686    2687    2687       0    2689    2690    2691
    2690    2691    2691       0    2693    2694    2695    2694    2695    2695
       0    2697    2698    2699    2698    2699    2699       0    2701    2702
    2703    2702    2703    2703       0    2705    2706    2707    2706    2707
    2707       0    2709    2710    2711    2710    2711    2711       0    2713
    2714    2715    2714    2715    2715       0    2717    2718    2719    2718
    2719    2719       0    2721    2722    2723    2722    2723    2723       0
    2725    2726    2727    2726    2727    2727       0    2729    2730    2731
    2730    2731    2731       0    2733    2734    2735    2734    2735    2735
       0    2737    2738    2739    2738    2739    2739       0    2741    2742
    2743    2742    2743    2743       0    2745    2746    2747    2746    2747
    2747       0    2749    2750    2751    2750    2751    2751       0    2753
    2754    2755    2754    2755    2755       0    2757    2758    2759    2758
    2759    2759       0    2761    2762    2763    2762    2763    2763       0
    2765    2766    2767    2766    2767    2767       0    2769    2770    2771
    2770    2771    2771       0    2773    2774    2775    2774    2775    2775
       0    2777    2778    2779    2778    2779    2779       0    2781    2782
    2783    2782    2783    2783       0    2785    2786    2787    2786    2787
    2787       0    2789    2790    2791    2790    2791    2791       0    2793
    2794    2795    2794    2795    2795       0    2797    2798    2799    2798
    2799    2799       0    2801    2802    2803    2802    2803    2803       0
    2805    2806    2807    2806    2807    2807       0    2809    2810    2811
    2810    2811    2811       0    2813    2814    2815    2814    2815    2815
       0    2817    2818    2819    2818    2819    2819       0    2821    2822
    2823    2822    2823    2823       0    2825    2826    2827    2826    2827
    2827       0    2829    2830    2831    2830    2831    2831       0    2833
    2834    2835    2834    2835    2835       0    2837    2838    2839    2838
    2839    2839       0    2841    2842    2843    2842    2843    2843       0
    2845    2846    2847    2846    2847    2847       0    2849    2850    2851
    2850    2851    2851       0    2853    2854    2855    2854    2855    2855
       0    2857    2858    2859    2858    2859    2859       0    2861    2862
    2863    2862    2863    2863       0    2865    2866    2867    2866    2867
    2867       0    2869    2870    2871    2870    2871    2871       0    2873
    2874    2875    2874    2875    2875       0    2877    2878    2879    2878
    2879    2879       0    2881    2882    2883    2882    2883    2883       0
    2885    2886    2887    2886    2887    2887       0    2889    2890    2891
    2890    2891    2891       0    2893    2894    2895    2894    2895    2895
       0    2897    2898    2899    2898    2899    2899       0    2901    2902
    2903    2902    2903    2903       0    2905    2906    2907    2906    2907
    2907       0    2909    2910    2911    2910    2911    2911       0    2913
    2914    2915    2914    2915    2915       0    2917    2918    2919    2918
    2919    2919       0    2921    2922    2923    2922    2923    2923       0
    2925    2926    2927    2926    2927    2927       0    2929    2930    2931
    2930    2931    2931       0    2933    2934    2935    2934    2935    2935
       0    2937    2938    2939    2938    2939    2939       0    2941    2942
    2943    2942    2943    2943       0    2945    2946    2947    2946    2947
    2947       0    2949    2950    2951    2950    2951    2951       0    2953
    2954    2955    2954    2955    2955       0    2957    2958    2959    2958
    2959    2959       0    2961    2962    2963    2962    2963    2963       0
    2965    2966    2967    2966    2967    2967       0    2969    2970    2971
    2970    2971    2971       0    2973    2974    2975    2974    2975    2975
       0    2977    2978    2979    2978    2979    2979       0    2981    2982
    2983    2982    2983    2983       0    2985    2986    2987    2986    2987
    2987       0    2989    2990    2991    2990    2991    2991       0    2993
    2994    2995    2994    2995    2995       0    2997    2998    2999    2998
    2999    2999       0    3001    3002    3003    3002    3003    3003       0
    3005    3006    3007    3006    3007    3007       0    3009    3010    3011
    3010    3011    3011       0    3013    3014    3015    3014    3015    3015
       0    3017    3018    3019    3018    3019    3019       0    3021    3022
    3023    3022    3023    3023       0    3025    3026    3027    3026    3027
    3027       0    3029    3030    3031    3030    3031    3031       0    3033
    3034    3035    3034    3035    3035       0    3037    3038    3039    3038
    3039    3039       0    3041    3042    3043    3042    3043    3043       0
    3045    3046    3047    3046    3047    3047       0    3049    3050    3051
    3050    3051    3051       0    3053    3054    3055    3054    3055    3055
       0    3057    3058    3059    3058    3059    3059       0    3061    3062
    3063    3062    3063    3063       0    3065    3066    3067    3066    3067
    3067       0    3069    3070    3071    3070    3071    3071       0    3073
    3074    3075    3074    3075    3075       0    3077    3078    3079    3078
    3079    3079       0    3081    3082    3083    3082    3083    3083       0
    3085    3086    3087    3086    3087    3087       0    3089    3090    3091
    3090    3091    3091       0    3093    3094    3095    3094    3095    3095
       0    3097    3098    3099    3098    3099    3099       0    3101    3102
    3103    3102    3103    3103       0    3105    3106    3107    3106    3107
    3107       0    3109    3110    3111    3110    3111    3111       0    3113
    3114    3115    3114    3115    3115       0    3117    3118    3119    3118
    3119    3119       0    3121    3122    3123    3122    3123    3123       0
    3125    3126    3127    3126    3127    3127       0    3129    3130    3131
    3130    3131    3131       0    3133    3134    3135    3134    3135    3135
       0    3137    3138    3139    3138    3139    3139       0    3141    3142
    3143    3142    3143    3143       0    3145    3146    3147    3146    3147
    3147       0    3149    3150    3151    3150    3151    3151       0    3153
    3154    3155    3154    3155    3155       0    3157    3158    3159    3158
    3159    3159       0    3161    3162    3163    3162    3163    3163       0
    3165    3166    3167    3166    3167    3167       0    3169    3170    3171
    3170    3171    3171       0    3173    3174    3175    3174    3175    3175
       0    3177    3178    3179    3178    3179    3179       0    3181    3182
    3183    3182    3183    3183       0    3185    3186    3187    3186    3187
    3187       0    3189    3190    3191    3190    3191    3191       0    3193
    3194    3195    3194    3195    3195       0    3197    3198    3199    3198
    3199    3199       0    3201    3202    3203    3202    3203    3203       0
    3205    3206    3207    3206    3207    3207       0    3209    3210    3211
    3210    3211    3211       0    3213    3214    3215    3214    3215    3215
       0    3217    3218    3219    3218    3219    3219       0    3221    3222
    3223    3222    3223    3223       0    3225    3226    3227    3226    3227
    3227       0    3229    3230    3231    3230    3231    3231       0    3233
    3234    3235    3234    3235    3235       0    3237    3238    3239    3238
    3239    3239       0    3241    3242    3243    3242    3243    3243       0
    3245    3246    3247    3246    3247    3247       0    3249    3250    3251
    3250    3251    3251       0    3253    3254    3255    3254    3255    3255
       0    3257    3258    3259    3258    3259    3259       0    3261    3262
    3263    3262    3263    3263       0    3265    3266    3267    3266    3267
    3267       0    3269    3270    3271    3270    3271    3271       0    3273
    3274    3275    3274    3275    3275       0    3277    3278    3279    3278
    3279    3279       0    3281    3282    3283    3282    3283    3283       0
    3285    3286    3287    3286    3287    3287       0    3289    3290    3291
    3290    3291    3291       0    3293    3294    3295    3294    3295    3295
       0    3297    3298    3299    3298    3299    3299       0    3301    3302
    3303    3302    3303    3303       0    3305    3306    3307    3306    3307
    3307       0    3309    3310    3311    3310    3311    3311       0    3313
    3314    3315    3314    3315    3315       0    3317    3318    3319    3318
    3319    3319       0    3321    3322    3323    3322    3323    3323       0
    3325    3326    3327    3326    3327    3327       0    3329    3330    3331
    3330    3331    3331       0    3333    3334    3335    3334    3335    3335
       0    3337    3338    3339    3338    3339    3339       0    3341    3342
    3343    3342    3343    3343       0    3345    3346    3347    3346    3347
    3347       0    3349    3350    3351    3350    3351    3351       0    3353
    3354    3355    3354    3355    3355       0    3357    3358    3359    3358
    3359    3359       0    3361    3362    3363    3362    3363    3363       0
    3365    3366    3367    3366    3367    3367       0    3369    3370    3371
    3370    3371    3371       0    3373    3374    3375    3374    3375    3375
       0    3377    3378    3379    3378    3379    3379       0    3381    3382
    3383    3382    3383    3383       0    3385    3386    3387    3386    3387
    3387       0    3389    3390    3391    3390    3391    3391       0    3393
    3394    3395    3394    3395    3395       0    3397    3398    3399    3398
    3399    3399       0    3401    3402    3403    3402    3403    3403       0
    3405    3406    3407    3406    3407    3407       0    3409    3410    3411
    3410    3411    3411       0    3413    3414    3415    3414    3415    3415
       0    3417    3418    3419    3418    3419    3419       0    3421    3422
    3423    3422    3423    3423       0    3425    3426    3427    3426    3427
    3427       0    3429    3430    3431    3430    3431    3431       0    3433
    3434    3435    3434    3435    3435       0    3437    3438    3439    3438
    3439    3439       0    3441    3442    3443    3442    3443    3443       0
    3445    3446    3447    3446    3447    3447       0    3449    3450    3451
    3450    3451    3451       0    3453    3454    3455    3454    3455    3455
       0    3457    3458    3459    3458    3459    3459       0    3461    3462
    3463    3462    3463    3463       0    3465    3466    3467    3466    3467
    3467       0    3469    3470    3471    3470    3471    3471       0    3473
    3474    3475    3474    3475    3475       0    3477    3478    3479    3478
    3479    3479       0    3481    3482    3483    3482    3483    3483       0
    3485    3486    3487    3486    3487    3487       0    3489    3490    3491
    3490    3491    3491       0    3493    3494    3495    3494    3495    3495
       0    3497    3498    3499    3498    3499    3499       0    3501    3502
    3503    3502    3503    3503       0    3505    3506    3507    3506    3507
    3507       0    3509    3510    3511    3510    3511    3511       0    3513
    3514    3515    3514    3515    3515       0    3517    3518    3519    3518
    3519    3519       0    3521    3522    3523    3522    3523    3523       0
    3525    3526    3527    3526    3527    3527       0    3529    3530    3531
    3530    3531    3531       0    3533    3534    3535    3534    3535    3535
       0    3537    3538    3539    3538    3539    3539       0    3541    3542
    3543    3542    3543    3543       0    3545    3546    3547    3546    3547
    3547       0    3549    3550    3551    3550    3551    3551       0    3553
    3554    3555    3554    3555    3555       0    3557    3558    3559    3558
    3559    3559       0    3561    3562    3563    3562    3563    3563       0
    3565    3566    3567    3566    3567    3567       0    3569    3570    3571
    3570    3571    3571       0    3573    3574    3575    3574    3575    3575
       0    3577    3578    3579    3578    3579    3579       0    3581    3582
    3583    3582    3583    3583       0    3585    3586    3587    3586    3587
    3587       0    3589    3590    3591    3590    3591    3591       0    3593
    3594    3595    3594    3595    3595       0    3597    3598    3599    3598
    3599    3599       0    3601    3602    3603    3602    3603    3603       0
    3605    3606    3607    3606    3607    3607       0    3609    3610    3611
    3610    3611    3611       0    3613    3614    3615    3614    3615    3615
       0    3617    3618    3619    3618    3619    3619       0    3621    3622
    3623    3622    3623    3623       0    3625    3626    3627    3626    3627
    3627       0    3629    3630    3631    3630    3631    3631       0    3633
    3634    3635    3634    3635    3635       0    3637    3638    3639    3638
    3639    3639       0    3641    3642    3643    3642    3643    3643       0
    3645    3646    3647    3646    3647    3647       0    3649    3650    3651
    3650    3651    3651       0    3653    3654    3655    3654    3655    3655
       0    3657    3658    3659    3658    3659    3659       0    3661    3662
    3663    3662    3663    3663       0    3665    3666    3667    3666    3667
    3667       0    3669    3670    3671    3670    3671    3671       0    3673
    3674    3675    3674    3675    3675       0    3677    3678    3679    3678
    3679    3679       0    3681    3682    3683    3682    3683    3683       0
    3685    3686    3687    3686    3687    3687       0    3689    3690    3691
    3690    3691    3691       0    3693    3694    3695    3694    3695    3695
       0    3697    3698    3699    3698    3699    3699       0    3701    3702
    3703    3702    3703    3703       0    3705    3706    3707    3706    3707
    3707       0    3709    3710    3711    3710    3711    3711       0    3713
    3714    3715    3714    3715    3715       0    3717    3718    3719    3718
    3719    3719       0    3721    3722    3723    3722    3723    3723       0
    3725    3726    3727    3726    3727    3727       0    3729    3730    3731
    3730    3731    3731       0    3733    3734    3735    3734    3735    3735
       0    3737    3738    3739    3738    3739    3739       0    3741    3742
    3743    3742    3743    3743       0    3745    3746    3747    3746    3747
    3747       0    3749    3750    3751    3750    3751    3751       0    3753
    3754    3755    3754    3755    3755       0    3757    3758    3759    3758
    3759    3759       0    3761    3762    3763    3762    3763    3763       0
    3765    3766    3767    3766    3767    3767       0    3769    3770    3771
    3770    3771    3771       0    3773    3774    3775    3774    3775    3775
       0    3777    3778    3779    3778    3779    3779       0    3781    3782
    3783    3782    3783    3783       0    3785    3786    3787    3786    3787
    3787       0    3789    3790    3791    3790    3791    3791       0    3793
    3794    3795    3794    3795    3795       0    3797    3798    3799    3798
    3799    3799       0    3801    3802    3803    3802    3803    3803       0
    3805    3806    3807    3806    3807    3807       0    3809    3810    3811
    3810    3811    3811       0    3813    3814    3815    3814    3815    3815
       0    3817    3818    3819    3818    3819    3819       0    3821    3822
    3823    3822    3823    3823       0    3825    3826    3827    3826    3827
    3827       0    3829    3830    3831    3830    3831    3831       0    3833
    3834    3835    3834    3835    3835       0    3837    3838    3839    3838
    3839    3839       0    3841    3842    3843    3842    3843    3843       0
    3845    3846    3847    3846    3847    3847       0    3849    3850    3851
    3850    3851    3851       0    3853    3854    3855    3854    3855    3855
       0    3857    3858    3859    3858    3859    3859       0    3861    3862
    3863    3862    3863    3863       0    3865    3866    3867    3866    3867
    3867       0    3869    3870    3871    3870    3871    3871       0    3873
    3874    3875    3874    3875    3875       0    3877    3878    3879    3878
    3879    3879       0    3881    3882    3883    3882    3883    3883       0
    3885    3886    3887    3886    3887    3887       0    3889    3890    3891
    3890    3891    3891       0    3893    3894    3895    3894    3895    3895
       0    3897    3898    3899    3898    3899    3899       0    3901    3902
    3903    3902    3903    3903       0    3905    3906    3907    3906    3907
    3907       0    3909    3910    3911    3910    3911    3911       0    3913
    3914    3915    3914    3915    3915       0    3917    3918    3919    3918
    3919    3919       0    3921    3922    3923    3922    3923    3923       0
    3925    3926    3927    3926    3927    3927       0    3929    3930    3931
    3930    3931    3931       0    3933    3934    3935    3934    3935    3935
       0    3937    3938    3939    3938    3939    3939       0    3941    3942
    3943    3942    3943    3943       0    3945    3946    3947    3946    3947
    3947       0    3949    3950    3951    3950    3951    3951       0    3953
    3954    3955    3954    3955    3955       0    3957    3958    3959    3958
    3959    3959       0    3961    3962    3963    3962    3963    3963       0
    3965    3966    3967    3966    3967    3967       0    3969    3970    3971
    3970    3971    3971       0    3973    3974    3975    3974    3975    3975
       0    3977    3978    3979    3978    3979    3979       0    3981    3982
    3983    3982    3983    3983       0    3985    3986    3987    3986    3987
    3987       0    3989    3990    3991    3990    3991    3991       0    3993
    3994    3995    3994    3995    3995       0    3997    3998    3999    3998
    3999    3999       0    4001    4002    4003    4002    4003    4003       0
    4005    4006    4007    4006    4007    4007       0    4009    4010    4011
    4010    4011    4011       0    4013    4014    4015    4014    4015    4015
       0    4017    4018    4019    4018    4019    4019       0    4021    4022
    4023    4022    4023    4023       0    4025    4026    4027    4026    4027
    4027       0    4029    4030    4031    4030    4031    4031       0    4033
    4034    4035    4034    4035    4035       0    4037    4038    4039    4038
    4039    4039       0    4041    4042    4043    4042    4043    4043       0
    4045    4046    4047    4046    4047    4047       0    4049    4050    4051
    4050    4051    4051       0    4053    4054    4055    4054    4055    4055
       0    4057    4058    4059    4058    4059    4059       0    4061    4062
    4063    4062    4063    4063       0    4065    4066    4067    4066    4067
    4067       0    4069    4070    4071    4070    4071    4071       0    4073
    4074    4075    4074    4075    4075       0    4077    4078    4079    4078
    4079    4079       0    4081    4082    4083    4082    4083    4083       0
    4085    4086    4087    4086    4087    4087       0    4089    4090    4091
    4090    4091    4091       0    4093    4094    4095    4094    4095    4095
       0    4097    4098    4099    4098    4099    4099       0    4101    4102
    4103    4102    4103    4103       0    4105    4106    4107    4106    4107
    4107       0    4109    4110    4111    4110    4111    4111       0    4113
    4114    4115    4114    4115    4115       0    4117    4118    4119    4118
    4119    4119       0    4121    4122    4123    4122    4123    4123       0
    4125    4126    4127    4126    4127    4127       0    4129    4130    4131
    4130    4131    4131       0    4133    4134    4135    4134    4135    4135
       0    4137    4138    4139    4138    4139    4139       0    4141    4142
    4143    4142    4143    4143       0    4145    4146    4147    4146    4147
    4147       0    4149    4150    4151    4150    4151    4151       0    4153
    4154    4155    4154    4155    4155       0    4157    4158    4159    4158
    4159    4159       0    4161    4162    4163    4162    4163    4163       0
    4165    4166    4167    4166    4167    4167       0    4169    4170    4171
    4170    4171    4171       0    4173    4174    4175    4174    4175    4175
       0    4177    4178    4179    4178    4179    4179       0    4181    4182
    4183    4182    4183    4183       0    4185    4186    4187    4186    4187
    4187       0    4189    4190    4191    4190    4191    4191       0    4193
    4194    4195    4194    4195    4195       0    4197    4198    4199    4198
    4199    4199       0    4201    4202    4203    4202    4203    4203       0
    4205    4206    4207    4206    4207    4207       0    4209    4210    4211
    4210    4211    4211       0    4213    4214    4215    4214    4215    4215
       0    4217    4218    4219    4218    4219    4219       0    4221    4222
    4223    4222    4223    4223       0    4225    4226    4227    4226    4227
    4227       0    4229    4230    4231    4230    4231    4231       0    4233
    4234    4235    4234    4235    4235       0    4237    4238    4239    4238
    4239    4239       0    4241    4242    4243    4242    4243    4243       0
    4245    4246    4247    4246    4247    4247       0    4249    4250    4251
    4250    4251    4251       0    4253    4254    4255    4254    4255    4255
       0    4257    4258    4259    4258    4259    4259       0    4261    4262
    4263    4262    4263    4263       0    4265    4266    4267    4266    4267
    4267       0    4269    4270    4271    4270    4271    4271       0    4273
    4274    4275    4274    4275    4275       0    4277    4278    4279    4278
    4279    4279       0    4281    4282    4283    4282    4283    4283       0
    4285    4286    4287    4286    4287    4287       0    4289    4290    4291
    4290    4291    4291       0    4293    4294    4295    4294    4295    4295
       0    4297    4298    4299    4298    4299    4299       0    4301    4302
    4303    4302    4303    4303       0    4305    4306    4307    4306    4307
    4307       0    4309    4310    4311    4310    4311    4311       0    4313
    4314    4315    4314    4315    4315       0    4317    4318    4319    4318
    4319    4319       0    4321    4322    4323    4322    4323    4323       0
    4325    4326    4327    4326    4327    4327       0    4329    4330    4331
    4330    4331    4331       0    4333    4334    4335    4334    4335    4335
       0    4337    4338    4339    4338    4339    4339       0    4341    4342
    4343    4342    4343    4343       0    4345    4346    4347    4346    4347
    4347       0    4349    4350    4351    4350    4351    4351       0    4353
    4354    4355    4354    4355    4355       0    4357    4358    4359    4358
    4359    4359       0    4361    4362    4363    4362    4363    4363       0
    4365    4366    4367    4366    4367    4367       0    4369    4370    4371
    4370    4371    4371       0    4373    4374    4375    4374    4375    4375
       0    4377    4378    4379    4378    4379    4379       0    4381    4382
    4383    4382    4383    4383       0    4385    4386    4387    4386    4387
    4387       0    4389    4390    4391    4390    4391    4391       0    4393
    4394    4395    4394    4395    4395       0    4397    4398    4399    4398
    4399    4399       0    4401    4402    4403    4402    4403    4403       0
    4405    4406    4407    4406    4407    4407       0    4409    4410    4411
    4410    4411    4411       0    4413    4414    4415    4414    4415    4415
       0    4417    4418    4419    4418    4419    4419       0    4421    4422
    4423    4422    4423    4423       0    4425    4426    4427    4426    4427
    4427       0    4429    4430    4431    4430    4431    4431       0    4433
    4434    4435    4434    4435    4435       0    4437    4438    4439    4438
    4439    4439       0    4441    4442    4443    4442    4443    4443       0
    4445    4446    4447    4446    4447    4447       0    4449    4450    4451
    4450    4451    4451       0    4453    4454    4455    4454    4455    4455
       0    4457    4458    4459    4458    4459    4459       0    4461    4462
    4463    4462    4463    4463       0    4465    4466    4467    4466    4467
    4467       0    4469    4470    4471    4470    4471    4471       0    4473
    4474    4475    4474    4475    4475       0    4477    4478    4479    4478
    4479    4479       0    4481    4482    4483    4482    4483    4483       0
    4485    4486    4487    4486    4487    4487       0    4489    4490    4491
    4490    4491    4491       0    4493    4494    4495    4494    4495    4495
       0    4497    4498    4499    4498    4499    4499       0    4501    4502
    4503    4502    4503    4503       0    4505    4506    4507    4506    4507
    4507       0    4509    4510    4511    4510    4511    4511       0    4513
    4514    4515    4514    4515    4515       0    4517    4518    4519    4518
    4519    4519       0    4521    4522    4523    4522    4523    4523       0
    4525    4526    4527    4526    4527    4527       0    4529    4530    4531
    4530    4531    4531       0    4533    4534    4535    4534    4535    4535
       0    4537    4538    4539    4538    4539    4539       0    4541    4542
    4543    4542    4543    4543       0    4545    4546    4547    4546    4547
    4547       0    4549    4550    4551    4550    4551    4551       0    4553
    4554    4555    4554    4555    4555       0    4557    4558    4559    4558
    4559    4559       0    4561    4562    4563    4562    4563    4563       0
    4565    4566    4567    4566    4567    4567       0    4569    4570    4571
    4570    4571    4571       0    4573    4574    4575    4574    4575    4575
       0    4577    4578    4579    4578    4579    4579       0    4581    4582
    4583    4582    4583    4583       0    4585    4586    4587    4586    4587
    4587       0    4589    4590    4591    4590    4591    4591       0    4593
    4594    4595    4594    4595    4595       0    4597    4598    4599    4598
    4599    4599       0    4601    4602    4603    4602    4603    4603       0
    4605    4606    4607    4606    4607    4607       0    4609    4610    4611
    4610    4611    4611       0    4613    4614    4615    4614    4615    4615
       0    4617    4618    4619    4618    4619    4619       0    4621    4622
    4623    4622    4623    4623       0    4625    4626    4627    4626    4627
    4627       0    4629    4630    4631    4630    4631    4631       0    4633
    4634    4635    4634    4635    4635       0    4637    4638    4639    4638
    4639    4639       0    4641    4642    4643    4642    4643    4643       0
    4645    4646    4647    4646    4647    4647       0    4649    4650    4651
    4650    4651    4651       0    4653    4654    4655    4654    4655    4655
       0    4657    4658    4659    4658    4659    4659       0    4661    4662
    4663    4662    4663    4663       0    4665    4666    4667    4666    4667
    4667       0    4669    4670    4671    4670    4671    4671       0    4673
    4674    4675    4674    4675    4675       0    4677    4678    4679    4678
    4679    4679       0    4681    4682    4683    4682    4683    4683       0
    4685    4686    4687    4686    4687    4687       0    4689    4690    4691
    4690    4691    4691       0    4693    4694    4695    4694    4695    4695
       0    4697    4698    4699    4698    4699    4699       0    4701    4702
    4703    4702    4703    4703       0    4705    4706    4707    4706    4707
    4707       0    4709    4710    4711    4710    4711    4711       0    4713
    4714    4715    4714    4715    4715       0    4717    4718    4719    4718
    4719    4719       0    4721    4722    4723    4722    4723    4723       0
    4725    4726    4727    4726    4727    4727       0    4729    4730    4731
    4730    4731    4731       0    4733    4734    4735    4734    4735    4735
       0    4737    4738    4739    4738    4739    4739       0    4741    4742
    4743    4742    4743    4743       0    4745    4746    4747    4746    4747
    4747       0    4749    4750    4751    4750    4751    4751       0    4753
    4754    4755    4754    4755    4755       0    4757    4758    4759    4758
    4759    4759       0    4761    4762    4763    4762    4763    4763       0
    4765    4766    4767    4766    4767    4767       0    4769    4770    4771
    4770    4771    4771       0    4773    4774    4775    4774    4775    4775
       0    4777    4778    4779    4778    4779    4779       0    4781    4782
    4783    4782    4783    4783       0    4785    4786    4787    4786    4787
    4787       0    4789    4790    4791    4790    4791    4791       0    4793
    4794    4795    4794    4795    4795       0    4797    4798    4799    4798
    4799    4799       0    4801    4802    4803    4802    4803    4803       0
    4805    4806    4807    4806    4807    4807       0    4809    4810    4811
    4810    4811    4811       0    4813    4814    4815    4814    4815    4815
       0    4817    4818    4819    4818    4819    4819       0    4821    4822
    4823    4822    4823    4823       0    4825    4826    4827    4826    4827
    4827       0    4829    4830    4831    4830    4831    4831       0    4833
    4834    4835    4834    4835    4835       0    4837    4838    4839    4838
    4839    4839       0    4841    4842    4843    4842    4843    4843       0
    4845    4846    4847    4846    4847    4847       0    4849    4850    4851
    4850    4851    4851       0    4853    4854    4855    4854    4855    4855
       0    4857    4858    4859    4858    4859    4859       0    4861    4862
    4863    4862    4863    4863       0    4865    4866    4867    4866    4867
    4867       0    4869    4870    4871    4870    4871    4871       0    4873
    4874    4875    4874    4875    4875       0    4877    4878    4879    4878
    4879    4879       0    4881    4882    4883    4882    4883    4883       0
    4885    4886    4887    4886    4887    4887       0    4889    4890    4891
    4890    4891    4891       0    4893    4894    4895    4894    4895    4895
       0    4897    4898    4899    4898    4899    4899       0    4901    4902
    4903    4902    4903    4903       0    4905    4906    4907    4906    4907
    4907       0    4909    4910    4911    4910    4911    4911       0    4913
    4914    4915    4914    4915    4915       0    4917    4918    4919    4918
    4919    4919       0    4921    4922    4923    4922    4923    4923       0
    4925    4926    4927    4926    4927    4927       0    4929    4930    4931
    4930    4931    4931       0    4933    4934    4935    4934    4935    4935
       0    4937    4938    4939    4938    4939    4939       0    4941    4942
    4943    4942    4943    4943       0    4945    4946    4947    4946    4947
    4947       0    4949    4950    4951    4950    4951    4951       0    4953
    4954    4955    4954    4955    4955       0    4957    4958    4959    4958
    4959    4959       0    4961    4962    4963    4962    4963    4963       0
    4965    4966    4967    4966    4967    4967       0    4969    4970    4971
    4970    4971    4971       0    4973    4974    4975    4974    4975    4975
       0    4977    4978    4979    4978    4979    4979       0    4981    4982
    4983    4982    4983    4983       0    4985    4986    4987    4986    4987
    4987       0    4989    4990    4991    4990    4991    4991       0    4993
    4994    4995    4994    4995    4995       0    4997    4998    4999    4998
    4999    4999       0    5001    5002    5003    5002    5003    5003       0
    5005    5006    5007    5006    5007    5007       0    5009    5010    5011
    5010    5011    5011       0    5013    5014    5015    5014    5015    5015
       0    5017    5018    5019    5018    5019    5019       0    5021    5022
    5023    5022    5023    5023       0    5025    5026    5027    5026    5027
    5027       0    5029    5030    5031    5030    5031    5031       0    5033
    5034    5035    5034    5035    5035       0    5037    5038    5039    5038
    5039    5039       0    5041    5042    5043    5042    5043    5043       0
    5045    5046    5047    5046    5047    5047       0    5049    5050    5051
    5050    5051    5051       0    5053    5054    5055    5054    5055    5055
       0    5057    5058    5059    5058    5059    5059       0    5061    5062
    5063    5062    5063    5063       0    5065    5066    5067    5066    5067
    5067       0    5069    5070    5071    5070    5071    5071       0    5073
    5074    5075    5074    5075    5075       0    5077    5078    5079    5078
    5079    5079       0    5081    5082    5083    5082    5083    5083       0
    5085    5086    5087    5086    5087    5087       0    5089    5090    5091
    5090    5091    5091       0    5093    5094    5095    5094    5095    5095
       0    5097    5098    5099    5098    5099    5099       0    5101    5102
    5103    5102    5103    5103       0    5105    5106    5107    5106    5107
    5107       0    5109    5110    5111    5110    5111    5111       0    5113
    5114    5115    5114    5115    5115       0    5117    5118    5119    5118
    5119    5119       0    5121    5122    5123    5122    5123    5123       0
    5125    5126    5127    5126    5127    5127       0    5129    5130    5131
    5130    5131    5131       0    5133    5134    5135    5134    5135    5135
       0    5137    5138    5139    5138    5139    5139       0    5141    5142
    5143    5142    5143    5143       0    5145    5146    5147    5146    5147
    5147       0    5149    5150    5151    5150    5151    5151       0    5153
    5154    5155    5154    5155    5155       0    5157    5158    5159    5158
    5159    5159       0    5161    5162    5163    5162    5163    5163       0
    5165    5166    5167    5166    5167    5167       0    5169    5170    5171
    5170    5171    5171       0    5173    5174    5175    5174    5175    5175
       0    5177    5178    5179    5178    5179    5179       0    5181    5182
    5183    5182    5183    5183       0    5185    5186    5187    5186    5187
    5187       0    5189    5190    5191    5190    5191    5191       0    5193
    5194    5195    5194    5195    5195       0    5197    5198    5199    5198
    5199    5199       0    5201    5202    5203    5202    5203    5203       0
    5205    5206    5207    5206    5207    5207       0    5209    5210    5211
    5210    5211    5211       0    5213    5214    5215    5214    5215    5215
       0    5217    5218    5219    5218    5219    5219       0    5221    5222
    5223    5222    5223    5223       0    5225    5226    5227    5226    5227
    5227       0    5229    5230    5231    5230    5231    5231       0    5233
    5234    5235    5234    5235    5235       0    5237    5238    5239    5238
    5239    5239       0    5241    5242    5243    5242    5243    5243       0
    5245    5246    5247    5246    5247    5247       0    5249    5250    5251
    5250    5251    5251       0    5253    5254    5255    5254    5255    5255
       0    5257    5258    5259    5258    5259    5259       0    5261    5262
    5263    5262    5263    5263       0    5265    5266    5267    5266    5267
    5267       0    5269    5270    5271    5270    5271    5271       0    5273
    5274    5275    5274    5275    5275       0    5277    5278    5279    5278
    5279    5279       0    5281    5282    5283    5282    5283    5283       0
    5285    5286    5287    5286    5287    5287       0    5289    5290    5291
    5290    5291    5291       0    5293    5294    5295    5294    5295    5295
       0    5297    5298    5299    5298    5299    5299       0    5301    5302
    5303    5302    5303    5303       0    5305    5306    5307    5306    5307
    5307       0    5309    5310    5311    5310    5311    5311       0    5313
    5314    5315    5314    5315    5315       0    5317    5318    5319    5318
    5319    5319       0    5321    5322    5323    5322    5323    5323       0
    5325    5326    5327    5326    5327    5327       0    5329    5330    5331
    5330    5331    5331       0    5333    5334    5335    5334    5335    5335
       0    5337    5338    5339    5338    5339    5339       0    5341    5342
    5343    5342    5343    5343       0    5345    5346    5347    5346    5347
    5347       0    5349    5350    5351    5350    5351    5351       0    5353
    5354    5355    5354    5355    5355       0    5357    5358    5359    5358
    5359    5359       0    5361    5362    5363    5362    5363    5363       0
    5365    5366    5367    5366    5367    5367       0    5369    5370    5371
    5370    5371    5371       0    5373    5374    5375    5374    5375    5375
       0    5377    5378    5379    5378    5379    5379       0    5381    5382
    5383    5382    5383    5383       0    5385    5386    5387    5386    5387
    5387       0    5389    5390    5391    5390    5391    5391       0    5393
    5394    5395    5394    5395    5395       0    5397    5398    5399    5398
    5399    5399       0    5401    5402    5403    5402    5403    5403       0
    5405    5406    5407    5406    5407    5407       0    5409    5410    5411
    5410    5411    5411       0    5413    5414    5415    5414    5415    5415
       0    5417    5418    5419    5418    5419    5419       0    5421    5422
    5423    5422    5423    5423       0    5425    5426    5427    5426    5427
    5427       0    5429    5430    5431    5430    5431    5431       0    5433
    5434    5435    5434    5435    5435       0    5437    5438    5439    5438
    5439    5439       0    5441    5442    5443    5442    5443    5443       0
    5445    5446    5447    5446    5447    5447       0    5449    5450    5451
    5450    5451    5451       0    5453    5454    5455    5454    5455    5455
       0    5457    5458    5459    5458    5459    5459       0    5461    5462
    5463    5462    5463    5463       0    5465    5466    5467    5466    5467
    5467       0    5469    5470    5471    5470    5471    5471       0    5473
    5474    5475    5474    5475    5475       0    5477    5478    5479    5478
    5479    5479       0    5481    5482    5483    5482    5483    5483       0
    5485    5486    5487    5486    5487    5487       0    5489    5490    5491
    5490    5491    5491       0    5493    5494    5495    5494    5495    5495
       0    5497    5498    5499    5498    5499    5499       0    5501    5502
    5503    5502    5503    5503       0    5505    5506    5507    5506    5507
    5507       0    5509    5510    5511    5510    5511    5511       0    5513
    5514    5515    5514    5515    5515       0    5517    5518    5519    5518
    5519    5519       0    5521    5522    5523    5522    5523    5523       0
    5525    5526    5527    5526    5527    5527       0    5529    5530    5531
    5530    5531    5531       0    5533    5534    5535    5534    5535    5535
       0    5537    5538    5539    5538    5539    5539       0    5541    5542
    5543    5542    5543    5543       0    5545    5546    5547    5546    5547
    5547       0    5549    5550    5551    5550    5551    5551       0    5553
    5554    5555    5554    5555    5555       0    5557    5558    5559    5558
    5559    5559       0    5561    5562    5563    5562    5563    5563       0
    5565    5566    5567    5566    5567    5567       0    5569    5570    5571
    5570    5571    5571       0    5573    5574    5575    5574    5575    5575
       0    5577    5578    5579    5578    5579    5579       0    5581    5582
    5583    5582    5583    5583       0    5585    5586    5587    5586    5587
    5587       0    5589    5590    5591    5590    5591    5591       0    5593
    5594    5595    5594    5595    5595       0    5597    5598    5599    5598
    5599    5599       0    5601    5602    5603    5602    5603    5603       0
    5605    5606    5607    5606    5607    5607       0    5609    5610    5611
    5610    5611    5611       0    5613    5614    5615    5614    5615    5615
       0    5617    5618    5619    5618    5619    5619       0    5621    5622
    5623    5622    5623    5623       0    5625    5626    5627    5626    5627
    5627       0    5629    5630    5631    5630    5631    5631       0    5633
    5634    5635    5634    5635    5635       0    5637    5638    5639    5638
    5639    5639       0    5641    5642    5643    5642    5643    5643       0
    5645    5646    5647    5646    5647    5647       0    5649    5650    5651
    5650    5651    5651       0    5653    5654    5655    5654    5655    5655
       0    5657    5658    5659    5658    5659    5659       0    5661    5662
    5663    5662    5663    5663       0    5665    5666    5667    5666    5667
    5667       0    5669    5670    5671    5670    5671    5671       0    5673
    5674    5675    5674    5675    5675       0    5677    5678    5679    5678
    5679    5679       0    5681    5682    5683    5682    5683    5683       0
    5685    5686    5687    5686    5687    5687       0    5689    5690    5691
    5690    5691    5691       0    5693    5694    5695    5694    5695    5695
       0    5697    5698    5699    5698    5699    5699       0    5701    5702
    5703    5702    5703    5703       0    5705    5706    5707    5706    5707
    5707       0    5709    5710    5711    5710    5711    5711       0    5713
    5714    5715    5714    5715    5715       0    5717    5718    5719    5718
    5719    5719       0    5721    5722    5723    5722    5723    5723       0
    5725    5726    5727    5726    5727    5727       0    5729    5730    5731
    5730    5731    5731       0    5733    5734    5735    5734    5735    5735
       0    5737    5738    5739    5738    5739    5739       0    5741    5742
    5743    5742    5743    5743       0    5745    5746    5747    5746    5747
    5747       0    5749    5750    5751    5750    5751    5751       0    5753
    5754    5755    5754    5755    5755       0    5757    5758    5759    5758
    5759    5759       0    5761    5762    5763    5762    5763    5763       0
    5765    5766    5767    5766    5767    5767       0    5769    5770    5771
    5770    5771    5771       0    5773    5774    5775    5774    5775    5775
       0    5777    5778    5779    5778    5779    5779       0    5781    5782
    5783    5782    5783    5783       0    5785    5786    5787    5786    5787
    5787       0    5789    5790    5791    5790    5791    5791       0    5793
    5794    5795    5794    5795    5795       0    5797    5798    5799    5798
    5799    5799       0    5801    5802    5803    5802    5803    5803       0
    5805    5806    5807    5806    5807    5807       0    5809    5810    5811
    5810    5811    5811       0    5813    5814    5815    5814    5815    5815
       0    5817    5818    5819    5818    5819    5819       0    5821    5822
    5823    5822    5823    5823       0    5825    5826    5827    5826    5827
    5827       0    5829    5830    5831    5830    5831    5831       0    5833
    5834    5835    5834    5835    5835       0    5837    5838    5839    5838
    5839    5839       0    5841    5842    5843    5842    5843    5843       0
    5845    5846    5847    5846    5847    5847       0    5849    5850    5851
    5850    5851    5851       0    5853    5854    5855    5854    5855    5855
       0    5857    5858    5859    5858    5859    5859       0    5861    5862
    5863    5862    5863    5863       0    5865    5866    5867    5866    5867
    5867       0    5869    5870    5871    5870    5871    5871       0    5873
    5874    5875    5874    5875    5875       0    5877    5878    5879    5878
    5879    5879       0    5881    5882    5883    5882    5883    5883       0
    5885    5886    5887    5886    5887    5887       0    5889    5890    5891
    5890    5891    5891       0    5893    5894    5895    5894    5895    5895
       0    5897    5898    5899    5898    5899    5899       0    5901    5902
    5903    5902    5903    5903       0    5905    5906    5907    5906    5907
    5907       0    5909    5910    5911    5910    5911    5911       0    5913
    5914    5915    5914    5915    5915       0    5917    5918    5919    5918
    5919    5919       0    5921    5922    5923    5922    5923    5923       0
    5925    5926    5927    5926    5927    5927       0    5929    5930    5931
    5930    5931    5931       0    5933    5934    5935    5934    5935    5935
       0    5937    5938    5939    5938    5939    5939       0    5941    5942
    5943    5942    5943    5943       0    5945    5946    5947    5946    5947
    5947       0    5949    5950    5951    5950    5951    5951       0    5953
    5954    5955    5954    5955    5955       0    5957    5958    5959    5958
    5959    5959       0    5961    5962    5963    5962    5963    5963       0
    5965    5966    5967    5966    5967    5967       0    5969    5970    5971
    5970    5971    5971       0    5973    5974    5975    5974    5975    5975
       0    5977    5978    5979    5978    5979    5979       0    5981    5982
    5983    5982    5983    5983       0    5985    5986    5987    5986    5987
    5987       0    5989    5990    5991    5990    5991    5991       0    5993
    5994    5995    5994    5995    5995       0    5997    5998    5999    5998
    5999    5999       0    6001    6002    6003    6002    6003    6003       0
    6005    6006    6007    6006    6007    6007       0    6009    6010    6011
    6010    6011    6011       0    6013    6014    6015    6014    6015    6015
       0    6017    6018    6019    6018    6019    6019       0    6021    6022
    6023    6022    6023    6023       0    6025    6026    6027    6026    6027
    6027       0    6029    6030    6031    6030    6031    6031       0    6033
    6034    6035    6034    6035    6035       0    6037    6038    6039    6038
    6039    6039       0    6041    6042    6043    6042    6043    6043       0
    6045    6046    6047    6046    6047    6047       0    6049    6050    6051
    6050    6051    6051       0    6053    6054    6055    6054    6055    6055
       0    6057    6058    6059    6058    6059    6059       0    6061    6062
    6063    6062    6063    6063       0    6065    6066    6067    6066    6067
    6067       0    6069    6070    6071    6070    6071    6071       0    6073
    6074    6075    6074    6075    6075       0    6077    6078    6079    6078
    6079    6079       0    6081    6082    6083    6082    6083    6083       0
    6085    6086    6087    6086    6087    6087       0    6089    6090    6091
    6090    6091    6091       0    6093    6094    6095    6094    6095    6095
       0    6097    6098    6099    6098    6099    6099       0    6101    6102
    6103    6102    6103    6103       0    6105    6106    6107    6106    6107
    6107       0    6109    6110    6111    6110    6111    6111       0    6113
    6114    6115    6114    6115    6115       0    6117    6118    6119    6118
    6119    6119       0    6121    6122    6123    6122    6123    6123       0
    6125    6126    6127    6126    6127    6127       0    6129    6130    6131
    6130    6131    6131       0    6133    6134    6135    6134    6135    6135
       0    6137    6138    6139    6138    6139    6139       0    6141    6142
    6143    6142    6143    6143       0    6145    6146    6147    6146    6147
    6147       0    6149    6150    6151    6150    6151    6151       0    6153
    6154    6155    6154    6155    6155       0    6157    6158    6159    6158
    6159    6159       0    6161    6162    6163    6162    6163    6163       0
    6165    6166    6167    6166    6167    6167       0    6169    6170    6171
    6170    6171    6171       0    6173    6174    6175    6174    6175    6175
       0    6177    6178    6179    6178    6179    6179       0    6181    6182
    6183    6182    6183    6183       0    6185    6186    6187    6186    6187
    6187       0    6189    6190    6191    6190    6191    6191       0    6193
    6194    6195    6194    6195    6195       0    6197    6198    6199    6198
    6199    6199       0    6201    6202    6203    6202    6203    6203       0
    6205    6206    6207    6206    6207    6207       0    6209    6210    6211
    6210    6211    6211       0    6213    6214    6215    6214    6215    6215
       0    6217    6218    6219    6218    6219    6219       0    6221    6222
    6223    6222    6223    6223       0    6225    6226    6227    6226    6227
    6227       0    6229    6230    6231    6230    6231    6231       0    6233
    6234    6235    6234    6235    6235       0    6237    6238    6239    6238
    6239    6239       0    6241    6242    6243    6242    6243    6243       0
    6245    6246    6247    6246    6247    6247       0    6249    6250    6251
    6250    6251    6251       0    6253    6254    6255    6254    6255    6255
       0    6257    6258    6259    6258    6259    6259       0    6261    6262
    6263    6262    6263    6263       0    6265    6266    6267    6266    6267
    6267       0    6269    6270    6271    6270    6271    6271       0    6273
    6274    6275    6274    6275    6275       0    6277    6278    6279    6278
    6279    6279       0    6281    6282    6283    6282    6283    6283       0
    6285    6286    6287    6286    6287    6287       0    6289    6290    6291
    6290    6291    6291       0    6293    6294    6295    6294    6295    6295
       0    6297    6298    6299    6298    6299    6299       0    6301    6302
    6303    6302    6303    6303       0    6305    6306    6307    6306    6307
    6307       0    6309    6310    6311    6310    6311    6311       0    6313
    6314    6315    6314    6315    6315       0    6317    6318    6319    6318
    6319    6319       0    6321    6322    6323    6322    6323    6323       0
    6325    6326    6327    6326    6327    6327       0    6329    6330    6331
    6330    6331    6331       0    6333    6334    6335    6334    6335    6335
       0    6337    6338    6339    6338    6339    6339       0    6341    6342
    6343    6342    6343    6343       0    6345    6346    6347    6346    6347
    6347       0    6349    6350    6351    6350    6351    6351       0    6353
    6354    6355    6354    6355    6355       0    6357    6358    6359    6358
    6359    6359       0    6361    6362    6363    6362    6363    6363       0
    6365    6366    6367    6366    6367    6367       0    6369    6370    6371
    6370    6371    6371       0    6373    6374    6375    6374    6375    6375
       0    6377    6378    6379    6378    6379    6379       0    6381    6382
    6383    6382    6383    6383       0    6385    6386    6387    6386    6387
    6387       0    6389    6390    6391    6390    6391    6391       0    6393
    6394    6395    6394    6395    6395       0    6397    6398    6399    6398
    6399    6399       0    6401    6402    6403    6402    6403    6403       0
    6405    6406    6407    6406    6407    6407       0    6409    6410    6411
    6410    6411    6411       0    6413    6414    6415    6414    6415    6415
       0    6417    6418    6419    6418    6419    6419       0    6421    6422
    6423    6422    6423    6423       0    6425    6426    6427    6426    6427
    6427       0    6429    6430    6431    6430    6431    6431       0    6433
    6434    6435    6434    6435    6435       0    6437    6438    6439    6438
    6439    6439       0    6441    6442    6443    6442    6443    6443       0
    6445    6446    6447    6446    6447    6447       0    6449    6450    6451
    6450    6451    6451       0    6453    6454    6455    6454    6455    6455
       0    6457    6458    6459    6458    6459    6459       0    6461    6462
    6463    6462    6463    6463       0    6465    6466    6467    6466    6467
    6467       0    6469    6470    6471    6470    6471    6471       0    6473
    6474    6475    6474    6475    6475       0    6477    6478    6479    6478
    6479    6479       0    6481    6482    6483    6482    6483    6483       0
    6485    6486    6487    6486    6487    6487       0    6489    6490    6491
    6490    6491    6491       0    6493    6494    6495    6494    6495    6495
       0    6497    6498    6499    6498    6499    6499       0    6501    6502
    6503    6502    6503    6503       0    6505    6506    6507    6506    6507
    6507       0    6509    6510    6511    6510    6511    6511       0    6513
    6514    6515    6514    6515    6515       0    6517    6518    6519    6518
    6519    6519       0    6521    6522    6523    6522    6523    6523       0
    6525    6526    6527    6526    6527    6527       0    6529    6530    6531
    6530    6531    6531       0    6533    6534    6535    6534    6535    6535
       0    6537    6538    6539    6538    6539    6539       0    6541    6542
    6543    6542    6543    6543       0    6545    6546    6547    6546    6547
    6547       0    6549    6550    6551    6550    6551    6551       0    6553
    6554    6555    6554    6555    6555       0    6557    6558    6559    6558
    6559    6559       0    6561    6562    6563    6562    6563    6563       0
    6565    6566    6567    6566    6567    6567       0    6569    6570    6571
    6570    6571    6571       0    6573    6574    6575    6574    6575    6575
       0    6577    6578    6579    6578    6579    6579       0    6581    6582
    6583    6582    6583    6583       0    6585    6586    6587    6586    6587
    6587       0    6589    6590    6591    6590    6591    6591       0    6593
    6594    6595    6594    6595    6595       0    6597    6598    6599    6598
    6599    6599       0    6601    6602    6603    6602    6603    6603       0
    6605    6606    6607    6606    6607    6607       0    6609    6610    6611
    6610    6611    6611       0    6613    6614    6615    6614    6615    6615
       0    6617    6618    6619    6618    6619    6619       0    6621    6622
    6623    6622    6623    6623       0    6625    6626    6627    6626    6627
    6627       0    6629    6630    6631    6630    6631    6631       0    6633
    6634    6635    6634    6635    6635       0    6637    6638    6639    6638
    6639    6639       0    6641    6642    6643    6642    6643    6643       0
    6645    6646    6647    6646    6647    6647       0    6649    6650    6651
    6650    6651    6651       0    6653    6654    6655    6654    6655    6655
       0    6657    6658    6659    6658    6659    6659       0    6661    6662
    6663    6662    6663    6663       0    6665    6666    6667    6666    6667
    6667       0    6669    6670    6671    6670    6671    6671       0    6673
    6674    6675    6674    6675    6675       0    6677    6678    6679    6678
    6679    6679       0    6681    6682    6683    6682    6683    6683       0
    6685    6686    6687    6686    6687    6687       0    6689    6690    6691
    6690    6691    6691       0    6693    6694    6695    6694    6695    6695
       0    6697    6698    6699    6698    6699    6699       0    6701    6702
    6703    6702    6703    6703       0    6705    6706    6707    6706    6707
    6707       0    6709    6710    6711    6710    6711    6711       0    6713
    6714    6715    6714    6715    6715       0    6717    6718    6719    6718
    6719    6719       0    6721    6722    6723    6722    6723    6723       0
    6725    6726    6727    6726    6727    6727       0    6729    6730    6731
    6730    6731    6731       0    6733    6734    6735    6734    6735    6735
       0    6737    6738    6739    6738    6739    6739       0    6741    6742
    6743    6742    6743    6743       0    6745    6746    6747    6746    6747
    6747       0    6749    6750    6751    6750    6751    6751       0    6753
    6754    6755    6754    6755    6755       0    6757    6758    6759    6758
    6759    6759       0    6761    6762    6763    6762    6763    6763       0
    6765    6766    6767    6766    6767    6767       0    6769    6770    6771
    6770    6771    6771       0    6773    6774    6775    6774    6775    6775
       0    6777    6778    6779    6778    6779    6779       0    6781    6782
    6783    6782    6783    6783       0    6785    6786    6787    6786    6787
    6787       0    6789    6790    6791    6790    6791    6791       0    6793
    6794    6795    6794    6795    6795       0    6797    6798    6799    6798
    6799    6799       0    6801    6802    6803    6802    6803    6803       0
    6805    6806    6807    6806    6807    6807       0    6809    6810    6811
    6810    6811    6811       0    6813    6814    6815    6814    6815    6815
       0    6817    6818    6819    6818    6819    6819       0    6821    6822
    6823    6822    6823    6823       0    6825    6826    6827    6826    6827
    6827       0    6829    6830    6831    6830    6831    6831       0    6833
    6834    6835    6834    6835    6835       0    6837    6838    6839    6838
    6839    6839       0    6841    6842    6843    6842    6843    6843       0
    6845    6846    6847    6846    6847    6847       0    6849    6850    6851
    6850    6851    6851       0    6853    6854    6855    6854    6855    6855
       0    6857    6858    6859    6858    6859    6859       0    6861    6862
    6863    6862    6863    6863       0    6865    6866    6867    6866    6867
    6867       0    6869    6870    6871    6870    6871    6871       0    6873
    6874    6875    6874    6875    6875       0    6877    6878    6879    6878
    6879    6879       0    6881    6882    6883    6882    6883    6883       0
    6885    6886    6887    6886    6887    6887       0    6889    6890    6891
    6890    6891    6891       0    6893    6894    6895    6894    6895    6895
       0    6897    6898    6899    6898    6899    6899       0    6901    6902
    6903    6902    6903    6903       0    6905    6906    6907    6906    6907
    6907       0    6909    6910    6911    6910    6911    6911       0    6913
    6914    6915    6914    6915    6915       0    6917    6918    6919    6918
    6919    6919       0    6921    6922    6923    6922    6923    6923       0
    6925    6926    6927    6926    6927    6927       0    6929    6930    6931
    6930    6931    6931       0    6933    6934    6935    6934    6935    6935
       0    6937    6938    6939    6938    6939    6939       0    6941    6942
    6943    6942    6943    6943       0    6945    6946    6947    6946    6947
    6947       0    6949    6950    6951    6950    6951    6951       0    6953
    6954    6955    6954    6955    6955       0    6957    6958    6959    6958
    6959    6959       0    6961    6962    6963    6962    6963    6963       0
    6965    6966    6967    6966    6967    6967       0    6969    6970    6971
    6970    6971    6971       0    6973    6974    6975    6974    6975    6975
       0    6977    6978    6979    6978    6979    6979       0    6981    6982
    6983    6982    6983    6983       0    6985    6986    6987    6986    6987
    6987       0    6989    6990    6991    6990    6991    6991       0    6993
    6994    6995    6994    6995    6995       0    6997    6998    6999    6998
    6999    6999       0    7001    7002    7003    7002    7003    7003       0
    7005    7006    7007    7006    7007    7007       0    7009    7010    7011
    7010    7011    7011       0    7013    7014    7015    7014    7015    7015
       0    7017    7018    7019    7018    7019    7019       0    7021    7022
    7023    7022    7023    7023       0    7025    7026    7027    7026    7027
    7027       0    7029    7030    7031    7030    7031    7031       0    7033
    7034    7035    7034    7035    7035       0    7037    7038    7039    7038
    7039    7039       0    7041    7042    7043    7042    7043    7043       0
    7045    7046    7047    7046    7047    7047       0    7049    7050    7051
    7050    7051    7051       0    7053    7054    7055    7054    7055    7055
       0    7057    7058    7059    7058    7059    7059       0    7061    7062
    7063    7062    7063    7063       0    7065    7066    7067    7066    7067
    7067       0    7069    7070    7071    7070    7071    7071       0    7073
    7074    7075    7074    7075    7075       0    7077    7078    7079    7078
    7079    7079       0    7081    7082    7083    7082    7083    7083       0
    7085    7086    7087    7086    7087    7087       0    7089    7090    7091
    7090    7091    7091       0    7093    7094    7095    7094    7095    7095
       0    7097    7098    7099    7098    7099    7099       0    7101    7102
    7103    7102    7103    7103       0    7105    7106    7107    7106    7107
    7107       0    7109    7110    7111    7110    7111    7111       0    7113
    7114    7115    7114    7115    7115       0    7117    7118    7119    7118
    7119    7119       0    7121    7122    7123    7122    7123    7123       0
    7125    7126    7127    7126    7127    7127       0    7129    7130    7131
    7130    7131    7131       0    7133    7134    7135    7134    7135    7135
       0    7137    7138    7139    7138    7139    7139       0    7141    7142
    7143    7142    7143    7143       0    7145    7146    7147    7146    7147
    7147       0    7149    7150    7151    7150    7151    7151       0    7153
    7154    7155    7154    7155    7155       0    7157    7158    7159    7158
    7159    7159       0    7161    7162    7163    7162    7163    7163       0
    7165    7166    7167    7166    7167    7167       0    7169    7170    7171
    7170    7171    7171       0    7173    7174    7175    7174    7175    7175
       0    7177    7178    7179    7178    7179    7179       0    7181    7182
    7183    7182    7183    7183       0    7185    7186    7187    7186    7187
    7187       0    7189    7190    7191    7190    7191    7191       0    7193
    7194    7195    7194    7195    7195       0    7197    7198    7199    7198
    7199    7199       0    7201    7202    7203    7202    7203    7203       0
    7205    7206    7207    7206    7207    7207       0    7209    7210    7211
    7210    7211    7211       0    7213    7214    7215    7214    7215    7215
       0    7217    7218    7219    7218    7219    7219       0    7221    7222
    7223    7222    7223    7223       0    7225    7226    7227    7226    7227
    7227       0    7229    7230    7231    7230    7231    7231       0    7233
    7234    7235    7234    7235    7235       0    7237    7238    7239    7238
    7239    7239       0    7241    7242    7243    7242    7243    7243       0
    7245    7246    7247    7246    7247    7247       0    7249    7250    7251
    7250    7251    7251       0    7253    7254    7255    7254    7255    7255
       0    7257    7258    7259    7258    7259    7259       0    7261    7262
    7263    7262    7263    7263       0    7265    7266    7267    7266    7267
    7267       0    7269    7270    7271    7270    7271    7271       0    7273
    7274    7275    7274    7275    7275       0    7277    7278    7279    7278
    7279    7279       0    7281    7282    7283    7282    7283    7283       0
    7285    7286    7287    7286    7287    7287       0    7289    7290    7291
    7290    7291    7291       0    7293    7294    7295    7294    7295    7295
       0    7297    7298    7299    7298    7299    7299       0    7301    7302
    7303    7302    7303    7303       0    7305    7306    7307    7306    7307
    7307       0    7309    7310    7311    7310    7311    7311       0    7313
    7314    7315    7314    7315    7315       0    7317    7318    7319    7318
    7319    7319       0    7321    7322    7323    7322    7323    7323       0
    7325    7326    7327    7326    7327    7327       0    7329    7330    7331
    7330    7331    7331       0    7333    7334    7335    7334    7335    7335
       0    7337    7338    7339    7338    7339    7339       0    7341    7342
    7343    7342    7343    7343       0    7345    7346    7347    7346    7347
    7347       0    7349    7350    7351    7350    7351    7351       0    7353
    7354    7355    7354    7355    7355       0    7357    7358    7359    7358
    7359    7359       0    7361    7362    7363    7362    7363    7363       0
    7365    7366    7367    7366    7367    7367       0    7369    7370    7371
    7370    7371    7371       0    7373    7374    7375    7374    7375    7375
       0    7377    7378    7379    7378    7379    7379       0    7381    7382
    7383    7382    7383    7383       0    7385    7386    7387    7386    7387
    7387       0    7389    7390    7391    7390    7391    7391       0    7393
    7394    7395    7394    7395    7395       0    7397    7398    7399    7398
    7399    7399       0    7401    7402    7403    7402    7403    7403       0
    7405    7406    7407    7406    7407    7407       0    7409    7410    7411
    7410    7411    7411       0    7413    7414    7415    7414    7415    7415
       0    7417    7418    7419    7418    7419    7419       0    7421    7422
    7423    7422    7423    7423       0    7425    7426    7427    7426    7427
    7427       0    7429    7430    7431    7430    7431    7431       0    7433
    7434    7435    7434    7435    7435       0    7437    7438    7439    7438
    7439    7439       0    7441    7442    7443    7442    7443    7443       0
    7445    7446    7447    7446    7447    7447       0    7449    7450    7451
    7450    7451    7451       0    7453    7454    7455    7454    7455    7455
       0    7457    7458    7459    7458    7459    7459       0    7461    7462
    7463    7462    7463    7463       0    7465    7466    7467    7466    7467
    7467       0    7469    7470    7471    7470    7471    7471       0    7473
    7474    7475    7474    7475    7475       0    7477    7478    7479    7478
    7479    7479       0    7481    7482    7483    7482    7483    7483       0
    7485    7486    7487    7486    7487    7487       0    7489    7490    7491
    7490    7491    7491       0    7493    7494    7495    7494    7495    7495
       0    7497    7498    7499    7498    7499    7499       0    7501    7502
    7503    7502    7503    7503       0    7505    7506    7507    7506    7507
    7507       0    7509    7510    7511    7510    7511    7511       0    7513
    7514    7515    7514    7515    7515       0    7517    7518    7519    7518
    7519    7519       0    7521    7522    7523    7522    7523    7523       0
    7525    7526    7527    7526    7527    7527       0    7529    7530    7531
    7530    7531    7531       0    7533    7534    7535    7534    7535    7535
       0    7537    7538    7539    7538    7539    7539       0    7541    7542
    7543    7542    7543    7543       0    7545    7546    7547    7546    7547
    7547       0    7549    7550    7551    7550    7551    7551       0    7553
    7554    7555    7554    7555    7555       0    7557    7558    7559    7558
    7559    7559       0    7561    7562    7563    7562    7563    7563       0
    7565    7566    7567    7566    7567    7567       0    7569    7570    7571
    7570    7571    7571       0    7573    7574    7575    7574    7575    7575
       0    7577    7578    7579    7578    7579    7579       0    7581    7582
    7583    7582    7583    7583       0    7585    7586    7587    7586    7587
    7587       0    7589    7590    7591    7590    7591    7591       0    7593
    7594    7595    7594    7595    7595       0    7597    7598    7599    7598
    7599    7599       0    7601    7602    7603    7602    7603    7603       0
    7605    7606    7607    7606    7607    7607       0    7609    7610    7611
    7610    7611    7611       0    7613    7614    7615    7614    7615    7615
       0    7617    7618    7619    7618    7619    7619       0    7621    7622
    7623    7622    7623    7623       0    7625    7626    7627    7626    7627
    7627       0    7629    7630    7631    7630    7631    7631       0    7633
    7634    7635    7634    7635    7635       0    7637    7638    7639    7638
    7639    7639       0    7641    7642    7643    7642    7643    7643       0
    7645    7646    7647    7646    7647    7647       0    7649    7650    7651
    7650    7651    7651       0    7653    7654    7655    7654    7655    7655
       0    7657    7658    7659    7658    7659    7659       0    7661    7662
    7663    7662    7663    7663       0    7665    7666    7667    7666    7667
    7667       0    7669    7670    7671    7670    7671    7671       0    7673
    7674    7675    7674    7675    7675       0    7677    7678    7679    7678
    7679    7679       0    7681    7682    7683    7682    7683    7683       0
    7685    7686    7687    7686    7687    7687       0    7689    7690    7691
    7690    7691    7691       0    7693    7694    7695    7694    7695    7695
       0    7697    7698    7699    7698    7699    7699       0    7701    7702
    7703    7702    7703    7703       0    7705    7706    7707    7706    7707
    7707       0    7709    7710    7711    7710    7711    7711       0    7713
    7714    7715    7714    7715    7715       0    7717    7718    7719    7718
    7719    7719       0    7721    7722    7723    7722    7723    7723       0
    7725    7726    7727    7726    7727    7727       0    7729    7730    7731
    7730    7731    7731       0    7733    7734    7735    7734    7735    7735
       0    7737    7738    7739    7738    7739    7739       0    7741    7742
    7743    7742    7743    7743       0    7745    7746    7747    7746    7747
    7747       0    7749    7750    7751    7750    7751    7751       0    7753
    7754    7755    7754    7755    7755       0    7757    7758    7759    7758
    7759    7759       0    7761    7762    7763    7762    7763    7763       0
    7765    7766    7767    7766    7767    7767       0    7769    7770    7771
    7770    7771    7771       0    7773    7774    7775    7774    7775    7775
       0    7777    7778    7779    7778    7779    7779       0    7781    7782
    7783    7782    7783    7783       0    7785    7786    7787    7786    7787
    7787       0    7789    7790    7791    7790    7791    7791       0    7793
    7794    7795    7794    7795    7795       0    7797    7798    7799    7798
    7799    7799       0    7801    7802    7803    7802    7803    7803       0
    7805    7806    7807    7806    7807    7807       0    7809    7810    7811
    7810    7811    7811       0    7813    7814    7815    7814    7815    7815
       0    7817    7818    7819    7818    7819    7819       0    7821    7822
    7823    7822    7823    7823       0    7825    7826    7827    7826    7827
    7827       0    7829    7830    7831    7830    7831    7831       0    7833
    7834    7835    7834    7835    7835       0    7837    7838    7839    7838
    7839    7839       0    7841    7842    7843    7842    7843    7843       0
    7845    7846    7847    7846    7847    7847       0    7849    7850    7851
    7850    7851    7851       0    7853    7854    7855    7854    7855    7855
       0    7857    7858    7859    7858    7859    7859       0    7861    7862
    7863    7862    7863    7863       0    7865    7866    7867    7866    7867
    7867       0    7869    7870    7871    7870    7871    7871       0    7873
    7874    7875    7874    7875    7875       0    7877    7878    7879    7878
    7879    7879       0    7881    7882    7883    7882    7883    7883       0
    7885    7886    7887    7886    7887    7887       0    7889    7890    7891
    7890    7891    7891       0    7893    7894    7895    7894    7895    7895
       0    7897    7898    7899    7898    7899    7899       0    7901    7902
    7903    7902    7903    7903       0    7905    7906    7907    7906    7907
    7907       0    7909    7910    7911    7910    7911    7911       0    7913
    7914    7915    7914    7915    7915       0    7917    7918    7919    7918
    7919    7919       0    7921    7922    7923    7922    7923    7923       0
    7925    7926    7927    7926    7927    7927       0    7929    7930    7931
    7930    7931    7931       0    7933    7934    7935    7934    7935    7935
       0    7937    7938    7939    7938    7939    7939       0    7941    7942
    7943    7942    7943    7943       0    7945    7946    7947    7946    7947
    7947       0    7949    7950    7951    7950    7951    7951       0    7953
    7954    7955    7954    7955    7955       0    7957    7958    7959    7958
    7959    7959       0    7961    7962    7963    7962    7963    7963       0
    7965    7966    7967    7966    7967    7967       0    7969    7970    7971
    7970    7971    7971       0    7973    7974    7975    7974    7975    7975
       0    7977    7978    7979    7978    7979    7979       0    7981    7982
    7983    7982    7983    7983       0    7985    7986    7987    7986    7987
    7987       0    7989    7990    7991    7990    7991    7991       0    7993
    7994    7995    7994    7995    7995       0    7997    7998    7999    7998
    7999    7999       0    8001    8002    8003    8002    8003    8003       0
    8005    8006    8007    8006    8007    8007       0    8009    8010    8011
    8010    8011    8011       0    8013    8014    8015    8014    8015    8015
       0    8017    8018    8019    8018    8019    8019       0    8021    8022
    8023    8022    8023    8023       0    8025    8026    8027    8026    8027
    8027       0    8029    8030    8031    8030    8031    8031       0    8033
    8034    8035    8034    8035    8035       0    8037    8038    8039    8038
    8039    8039       0    8041    8042    8043    8042    8043    8043       0
    8045    8046    8047    8046    8047    8047       0    8049    8050    8051
    8050    8051    8051       0    8053    8054    8055    8054    8055    8055
       0    8057    8058    8059    8058    8059    8059       0    8061    8062
    8063    8062    8063    8063       0    8065    8066    8067    8066    8067
    8067       0    8069    8070    8071    8070    8071    8071       0    8073
    8074    8075    8074    8075    8075       0    8077    8078    8079    8078
    8079    8079       0    8081    8082    8083    8082    8083    8083       0
    8085    8086    8087    8086    8087    8087       0    8089    8090    8091
    8090    8091    8091       0    8093    8094    8095    8094    8095    8095
       0    8097    8098    8099    8098    8099    8099       0    8101    8102
    8103    8102    8103    8103       0    8105    8106    8107    8106    8107
    8107       0    8109    8110    8111    8110    8111    8111       0    8113
    8114    8115    8114    8115    8115       0    8117    8118    8119    8118
    8119    8119       0    8121    8122    8123    8122    8123    8123       0
    8125    8126    8127    8126    8127    8127       0    8129    8130    8131
    8130    8131    8131       0    8133    8134    8135    8134    8135    8135
       0    8137    8138    8139    8138    8139    8139       0    8141    8142
    8143    8142    8143    8143       0    8145    8146    8147    8146    8147
    8147       0    8149    8150    8151    8150    8151    8151       0    8153
    8154    8155    8154    8155    8155       0    8157    8158    8159    8158
    8159    8159       0    8161    8162    8163    8162    8163    8163       0
    8165    8166    8167    8166    8167    8167       0    8169    8170    8171
    8170    8171    8171       0    8173    8174    8175    8174    8175    8175
       0    8177    8178    8179    8178    8179    8179       0    8181    8182
    8183    8182    8183    8183       0    8185    8186    8187    8186    8187
    8187       0    8189    8190    8191    8190    8191    8191       0    8193
    8194    8195    8194    8195    8195       0    8197    8198    8199    8198
    8199    8199       0    8201    8202    8203    8202    8203    8203       0
    8205    8206    8207    8206    8207    8207       0    8209    8210    8211
    8210    8211    8211       0    8213    8214    8215    8214    8215    8215
       0    8217    8218    8219    8218    8219    8219       0    8221    8222
    8223    8222    8223    8223       0    8225    8226    8227    8226    8227
    8227       0    8229    8230    8231    8230    8231    8231       0    8233
    8234    8235    8234    8235    8235       0    8237    8238    8239    8238
    8239    8239       0    8241    8242    8243    8242    8243    8243       0
    8245    8246    8247    8246    8247    8247       0    8249    8250    8251
    8250    8251    8251       0    8253    8254    8255    8254    8255    8255
       0    8257    8258    8259    8258    8259    8259       0    8261    8262
    8263    8262    8263    8263       0    8265    8266    8267    8266    8267
    8267       0    8269    8270    8271    8270    8271    8271       0    8273
    8274    8275    8274    8275    8275       0    8277    8278    8279    8278
    8279    8279       0    8281    8282    8283    8282    8283    8283       0
    8285    8286    8287    8286    8287    8287       0    8289    8290    8291
    8290    8291    8291       0    8293    8294    8295    8294    8295    8295
       0    8297    8298    8299    8298    8299    8299       0    8301    8302
    8303    8302    8303    8303       0    8305    8306    8307    8306    8307
    8307       0    8309    8310    8311    8310    8311    8311       0    8313
    8314    8315    8314    8315    8315       0    8317    8318    8319    8318
    8319    8319       0    8321    8322    8323    8322    8323    8323       0
    8325    8326    8327    8326    8327    8327       0    8329    8330    8331
    8330    8331    8331       0    8333    8334    8335    8334    8335    8335
       0    8337    8338    8339    8338    8339    8339       0    8341    8342
    8343    8342    8343    8343       0    8345    8346    8347    8346    8347
    8347       0    8349    8350    8351    8350    8351    8351       0    8353
    8354    8355    8354    8355    8355       0    8357    8358    8359    8358
    8359    8359       0    8361    8362    8363    8362    8363    8363       0
    8365    8366    8367    8366    8367    8367       0    8369    8370    8371
    8370    8371    8371       0    8373    8374    8375    8374    8375    8375
       0    8377    8378    8379    8378    8379    8379       0    8381    8382
    8383    8382    8383    8383       0    8385    8386    8387    8386    8387
    8387       0    8389    8390    8391    8390    8391    8391       0    8393
    8394    8395    8394    8395    8395       0    8397    8398    8399    8398
    8399    8399       0    8401    8402    8403    8402    8403    8403       0
    8405    8406    8407    8406    8407    8407       0    8409    8410    8411
    8410    8411    8411       0    8413    8414    8415    8414    8415    8415
       0    8417    8418    8419    8418    8419    8419       0    8421    8422
    8423    8422    8423    8423       0    8425    8426    8427    8426    8427
    8427       0    8429    8430    8431    8430    8431    8431       0    8433
    8434    8435    8434    8435    8435       0    8437    8438    8439    8438
    8439    8439       0    8441    8442    8443    8442    8443    8443       0
    8445    8446    8447    8446    8447    8447       0    8449    8450    8451
    8450    8451    8451       0    8453    8454    8455    8454    8455    8455
       0    8457    8458    8459    8458    8459    8459       0    8461    8462
    8463    8462    8463    8463       0    8465    8466    8467    8466    8467
    8467       0    8469    8470    8471    8470    8471    8471       0    8473
    8474    8475    8474    8475    8475       0    8477    8478    8479    8478
    8479    8479       0    8481    8482    8483    8482    8483    8483       0
    8485    8486    8487    8486    8487    8487       0    8489    8490    8491
    8490    8491    8491       0    8493    8494    8495    8494    8495    8495
       0    8497    8498    8499    8498    8499    8499       0    8501    8502
    8503    8502    8503    8503       0    8505    8506    8507    8506    8507
    8507       0    8509    8510    8511    8510    8511    8511       0    8513
    8514    8515    8514    8515    8515       0    8517    8518    8519    8518
    8519    8519       0    8521    8522    8523    8522    8523    8523       0
    8525    8526    8527    8526    8527    8527       0    8529    8530    8531
    8530    8531    8531       0    8533    8534    8535    8534    8535    8535
       0    8537    8538    8539    8538    8539    8539       0    8541    8542
    8543    8542    8543    8543       0    8545    8546    8547    8546    8547
    8547       0    8549    8550    8551    8550    8551    8551       0    8553
    8554    8555    8554    8555    8555       0    8557    8558    8559    8558
    8559    8559       0    8561    8562    8563    8562    8563    8563       0
    8565    8566    8567    8566    8567    8567       0    8569    8570    8571
    8570    8571    8571       0    8573    8574    8575    8574    8575    8575
       0    8577    8578    8579    8578    8579    8579       0    8581    8582
    8583    8582    8583    8583       0    8585    8586    8587    8586    8587
    8587       0    8589    8590    8591    8590    8591    8591       0    8593
    8594    8595    8594    8595    8595       0    8597    8598    8599    8598
    8599    8599       0    8601    8602    8603    8602    8603    8603       0
    8605    8606    8607    8606    8607    8607       0    8609    8610    8611
    8610    8611    8611       0    8613    8614    8615    8614    8615    8615
       0    8617    8618    8619    8618    8619    8619       0    8621    8622
    8623    8622    8623    8623       0    8625    8626    8627    8626    8627
    8627       0    8629    8630    8631    8630    8631    8631       0    8633
    8634    8635    8634    8635    8635       0    8637    8638    8639    8638
    8639    8639       0    8641    8642    8643    8642    8643    8643       0
    8645    8646    8647    8646    8647    8647       0    8649    8650    8651
    8650    8651    8651       0    8653    8654    8655    8654    8655    8655
       0    8657    8658    8659    8658    8659    8659       0    8661    8662
    8663    8662    8663    8663       0    8665    8666    8667    8666    8667
    8667       0    8669    8670    8671    8670    8671    8671       0    8673
    8674    8675    8674    8675    8675       0    8677    8678    8679    8678
    8679    8679       0    8681    8682    8683    8682    8683    8683       0
    8685    8686    8687    8686    8687    8687       0    8689    8690    8691
    8690    8691    8691       0    8693    8694    8695    8694    8695    8695
       0    8697    8698    8699    8698    8699    8699       0    8701    8702
    8703    8702    8703    8703       0    8705    8706    8707    8706    8707
    8707       0    8709    8710    8711    8710    8711    8711       0    8713
    8714    8715    8714    8715    8715       0    8717    8718    8719    8718
    8719    8719       0    8721    8722    8723    8722    8723    8723       0
    8725    8726    8727    8726    8727    8727       0    8729    8730    8731
    8730    8731    8731       0    8733    8734    8735    8734    8735    8735
       0    8737    8738    8739    8738    8739    8739       0    8741    8742
    8743    8742    8743    8743       0    8745    8746    8747    8746    8747
    8747       0    8749    8750    8751    8750    8751    8751       0    8753
    8754    8755    8754    8755    8755       0
%FLAG HBOND_ACOEF                                                               
%FORMAT(5E16.8)                                                                 

%FLAG HBOND_BCOEF                                                               
%FORMAT(5E16.8)                                                                 

%FLAG HBCUT                                                                     
%FORMAT(5E16.8)                                                                 

%FLAG AMBER_ATOM_TYPE                                                           
%FORMAT(20a4)                                                                   
Na+ Cl- Na+ Cl- Na+ Cl- Na+ Cl- Na+ Cl- o   c   ns  cc  ns  c   c3  o   nd  cd  
cc  nc  cd  na  hn  hn  hc  hc  hc  h5  hn  OW  HW  HW  EP  OW  HW  HW  EP  OW  
HW  HW  EP  OW  HW  HW  EP  OW  HW  HW  EP  OW  HW  HW  EP  OW  HW  HW  EP  OW  
HW  HW  EP  OW  HW  HW  EP  OW  HW  HW  EP  OW  HW  HW  EP  OW  HW  HW  EP  OW  
HW  HW  EP  OW  HW  HW  EP  OW  HW  HW  EP  OW  HW  HW  EP  OW  HW  HW  EP  OW  
HW  HW  EP  OW  HW  HW  EP  OW  HW  HW  EP  OW  HW  HW  EP  OW  HW  HW  EP  OW  
HW  HW  EP  OW  HW  HW  EP  OW  HW  HW  EP  OW  HW  HW  EP  OW  HW  HW  EP  OW  
HW  HW  EP  OW  HW  HW  EP  OW  HW  HW  EP  OW  HW  HW  EP  OW  HW  HW  EP  OW  
HW  HW  EP  OW  HW  HW  EP  OW  HW  HW  EP  OW  HW  HW  EP  OW  HW  HW  EP  OW  
HW  HW  EP  OW  HW  HW  EP  OW  HW  HW  EP  OW  HW  HW  EP  OW  HW  HW  EP  OW  
HW  HW  EP  OW  HW  HW  EP  OW  HW  HW  EP  OW  HW  HW  EP  OW  HW  HW  EP  OW  
HW  HW  EP  OW  HW  HW  EP  OW  HW  HW  EP  OW  HW  HW  EP  OW  HW  HW  EP  OW  
HW  HW  EP  OW  HW  HW  EP  OW  HW  HW  EP  OW  HW  HW  EP  OW  HW  HW  EP  OW  
HW  HW  EP  OW  HW  HW  EP  OW  HW  HW  EP  OW  HW  HW  EP  OW  HW  HW  EP  OW  
HW  HW  EP  OW  HW  HW  EP  OW  HW  HW  EP  OW  HW  HW  EP  OW  HW  HW  EP  OW  
HW  HW  EP  OW  HW  HW  EP  OW  HW  HW  EP  OW  HW  HW  EP  OW  HW  HW  EP  OW  
HW  HW  EP  OW  HW  HW  EP  OW  HW  HW  EP  OW  HW  HW  EP  OW  HW  HW  EP  OW  
HW  HW  EP  OW  HW  HW  EP  OW  HW  HW  EP  OW  HW  HW  EP  OW  HW  HW  EP  OW  
HW  HW  EP  OW  HW  HW  EP  OW  HW  HW  EP  OW  HW  HW  EP  OW  HW  HW  EP  OW  
HW  HW  EP  OW  HW  HW  EP  OW  HW  HW  EP  OW  HW  HW  EP  OW  HW  HW  EP  OW  
HW  HW  EP  OW  HW  HW  EP  OW  HW  HW  EP  OW  HW  HW  EP  OW  HW  HW  EP  OW  
HW  HW  EP  OW  HW  HW  EP  OW  HW  HW  EP  OW  HW  HW  EP  OW  HW  HW  EP  OW  
HW  HW  EP  OW  HW  HW  EP  OW  HW  HW  EP  OW  HW  HW  EP  OW  HW  HW  EP  OW  
HW  HW  EP  OW  HW  HW  EP  OW  HW  HW  EP  OW  HW  HW  EP  OW  HW  HW  EP  OW  
HW  HW  EP  OW  HW  HW  EP  OW  HW  HW  EP  OW  HW  HW  EP  OW  HW  HW  EP  OW  
HW  HW  EP  OW  HW  HW  EP  OW  HW  HW  EP  OW  HW  HW  EP  OW  HW  HW  EP  OW  
HW  HW  EP  OW  HW  HW  EP  OW  HW  HW  EP  OW  HW  HW  EP  OW  HW  HW  EP  OW  
HW  HW  EP  OW  HW  HW  EP  OW  HW  HW  EP  OW  HW  HW  EP  OW  HW  HW  EP  OW  
HW  HW  EP  OW  HW  HW  EP  OW  HW  HW  EP  OW  HW  HW  EP  OW  HW  HW  EP  OW  
HW  HW  EP  OW  HW  HW  EP  OW  HW  HW  EP  OW  HW  HW  EP  OW  HW  HW  EP  OW  
HW  HW  EP  OW  HW  HW  EP  OW  HW  HW  EP  OW  HW  HW  EP  OW  HW  HW  EP  OW  
HW  HW  EP  OW  HW  HW  EP  OW  HW  HW  EP  OW  HW  HW  EP  OW  HW  HW  EP  OW  
HW  HW  EP  OW  HW  HW  EP  OW  HW  HW  EP  OW  HW  HW  EP  OW  HW  HW  EP  OW  
HW  HW  EP  OW  HW  HW  EP  OW  HW  HW  EP  OW  HW  HW  EP  OW  HW  HW  EP  OW  
HW  HW  EP  OW  HW  HW  EP  OW  HW  HW  EP  OW  HW  HW  EP  OW  HW  HW  EP  OW  
HW  HW  EP  OW  HW  HW  EP  OW  HW  HW  EP  OW  HW  HW  EP  OW  HW  HW  EP  OW  
HW  HW  EP  OW  HW  HW  EP  OW  HW  HW  EP  OW  HW  HW  EP  OW  HW  HW  EP  OW  
HW  HW  EP  OW  HW  HW  EP  OW  HW  HW  EP  OW  HW  HW  EP  OW  HW  HW  EP  OW  
HW  HW  EP  OW  HW  HW  EP  OW  HW  HW  EP  OW  HW  HW  EP  OW  HW  HW  EP  OW  
HW  HW  EP  OW  HW  HW  EP  OW  HW  HW  EP  OW  HW  HW  EP  OW  HW  HW  EP  OW  
HW  HW  EP  OW  HW  HW  EP  OW  HW  HW  EP  OW  HW  HW  EP  OW  HW  HW  EP  OW  
HW  HW  EP  OW  HW  HW  EP  OW  HW  HW  EP  OW  HW  HW  EP  OW  HW  HW  EP  OW  
HW  HW  EP  OW  HW  HW  EP  OW  HW  HW  EP  OW  HW  HW  EP  OW  HW  HW  EP  OW  
HW  HW  EP  OW  HW  HW  EP  OW  HW  HW  EP  OW  HW  HW  EP  OW  HW  HW  EP  OW  
HW  HW  EP  OW  HW  HW  EP  OW  HW  HW  EP  OW  HW  HW  EP  OW  HW  HW  EP  OW  
HW  HW  EP  OW  HW  HW  EP  OW  HW  HW  EP  OW  HW  HW  EP  OW  HW  HW  EP  OW  
HW  HW  EP  OW  HW  HW  EP  OW  HW  HW  EP  OW  HW  HW  EP  OW  HW  HW  EP  OW  
HW  HW  EP  OW  HW  HW  EP  OW  HW  HW  EP  OW  HW  HW  EP  OW  HW  HW  EP  OW  
HW  HW  EP  OW  HW  HW  EP  OW  HW  HW  EP  OW  HW  HW  EP  OW  HW  HW  EP  OW  
HW  HW  EP  OW  HW  HW  EP  OW  HW  HW  EP  OW  HW  HW  EP  OW  HW  HW  EP  OW  
HW  HW  EP  OW  HW  HW  EP  OW  HW  HW  EP  OW  HW  HW  EP  OW  HW  HW  EP  OW  
HW  HW  EP  OW  HW  HW  EP  OW  HW  HW  EP  OW  HW  HW  EP  OW  HW  HW  EP  OW  
HW  HW  EP  OW  HW  HW  EP  OW  HW  HW  EP  OW  HW  HW  EP  OW  HW  HW  EP  OW  
HW  HW  EP  OW  HW  HW  EP  OW  HW  HW  EP  OW  HW  HW  EP  OW  HW  HW  EP  OW  
HW  HW  EP  OW  HW  HW  EP  OW  HW  HW  EP  OW  HW  HW  EP  OW  HW  HW  EP  OW  
HW  HW  EP  OW  HW  HW  EP  OW  HW  HW  EP  OW  HW  HW  EP  OW  HW  HW  EP  OW  
HW  HW  EP  OW  HW  HW  EP  OW  HW  HW  EP  OW  HW  HW  EP  OW  HW  HW  EP  OW  
HW  HW  EP  OW  HW  HW  EP  OW  HW  HW  EP  OW  HW  HW  EP  OW  HW  HW  EP  OW  
HW  HW  EP  OW  HW  HW  EP  OW  HW  HW  EP  OW  HW  HW  EP  OW  HW  HW  EP  OW  
HW  HW  EP  OW  HW  HW  EP  OW  HW  HW  EP  OW  HW  HW  EP  OW  HW  HW  EP  OW  
HW  HW  EP  OW  HW  HW  EP  OW  HW  HW  EP  OW  HW  HW  EP  OW  HW  HW  EP  OW  
HW  HW  EP  OW  HW  HW  EP  OW  HW  HW  EP  OW  HW  HW  EP  OW  HW  HW  EP  OW  
HW  HW  EP  OW  HW  HW  EP  OW  HW  HW  EP  OW  HW  HW  EP  OW  HW  HW  EP  OW  
HW  HW  EP  OW  HW  HW  EP  OW  HW  HW  EP  OW  HW  HW  EP  OW  HW  HW  EP  OW  
HW  HW  EP  OW  HW  HW  EP  OW  HW  HW  EP  OW  HW  HW  EP  OW  HW  HW  EP  OW  
HW  HW  EP  OW  HW  HW  EP  OW  HW  HW  EP  OW  HW  HW  EP  OW  HW  HW  EP  OW  
HW  HW  EP  OW  HW  HW  EP  OW  HW  HW  EP  OW  HW  HW  EP  OW  HW  HW  EP  OW  
HW  HW  EP  OW  HW  HW  EP  OW  HW  HW  EP  OW  HW  HW  EP  OW  HW  HW  EP  OW  
HW  HW  EP  OW  HW  HW  EP  OW  HW  HW  EP  OW  HW  HW  EP  OW  HW  HW  EP  OW  
HW  HW  EP  OW  HW  HW  EP  OW  HW  HW  EP  OW  HW  HW  EP  OW  HW  HW  EP  OW  
HW  HW  EP  OW  HW  HW  EP  OW  HW  HW  EP  OW  HW  HW  EP  OW  HW  HW  EP  OW  
HW  HW  EP  OW  HW  HW  EP  OW  HW  HW  EP  OW  HW  HW  EP  OW  HW  HW  EP  OW  
HW  HW  EP  OW  HW  HW  EP  OW  HW  HW  EP  OW  HW  HW  EP  OW  HW  HW  EP  OW  
HW  HW  EP  OW  HW  HW  EP  OW  HW  HW  EP  OW  HW  HW  EP  OW  HW  HW  EP  OW  
HW  HW  EP  OW  HW  HW  EP  OW  HW  HW  EP  OW  HW  HW  EP  OW  HW  HW  EP  OW  
HW  HW  EP  OW  HW  HW  EP  OW  HW  HW  EP  OW  HW  HW  EP  OW  HW  HW  EP  OW  
HW  HW  EP  OW  HW  HW  EP  OW  HW  HW  EP  OW  HW  HW  EP  OW  HW  HW  EP  OW  
HW  HW  EP  OW  HW  HW  EP  OW  HW  HW  EP  OW  HW  HW  EP  OW  HW  HW  EP  OW  
HW  HW  EP  OW  HW  HW  EP  OW  HW  HW  EP  OW  HW  HW  EP  OW  HW  HW  EP  OW  
HW  HW  EP  OW  HW  HW  EP  OW  HW  HW  EP  OW  HW  HW  EP  OW  HW  HW  EP  OW  
HW  HW  EP  OW  HW  HW  EP  OW  HW  HW  EP  OW  HW  HW  EP  OW  HW  HW  EP  OW  
HW  HW  EP  OW  HW  HW  EP  OW  HW  HW  EP  OW  HW  HW  EP  OW  HW  HW  EP  OW  
HW  HW  EP  OW  HW  HW  EP  OW  HW  HW  EP  OW  HW  HW  EP  OW  HW  HW  EP  OW  
HW  HW  EP  OW  HW  HW  EP  OW  HW  HW  EP  OW  HW  HW  EP  OW  HW  HW  EP  OW  
HW  HW  EP  OW  HW  HW  EP  OW  HW  HW  EP  OW  HW  HW  EP  OW  HW  HW  EP  OW  
HW  HW  EP  OW  HW  HW  EP  OW  HW  HW  EP  OW  HW  HW  EP  OW  HW  HW  EP  OW  
HW  HW  EP  OW  HW  HW  EP  OW  HW  HW  EP  OW  HW  HW  EP  OW  HW  HW  EP  OW  
HW  HW  EP  OW  HW  HW  EP  OW  HW  HW  EP  OW  HW  HW  EP  OW  HW  HW  EP  OW  
HW  HW  EP  OW  HW  HW  EP  OW  HW  HW  EP  OW  HW  HW  EP  OW  HW  HW  EP  OW  
HW  HW  EP  OW  HW  HW  EP  OW  HW  HW  EP  OW  HW  HW  EP  OW  HW  HW  EP  OW  
HW  HW  EP  OW  HW  HW  EP  OW  HW  HW  EP  OW  HW  HW  EP  OW  HW  HW  EP  OW  
HW  HW  EP  OW  HW  HW  EP  OW  HW  HW  EP  OW  HW  HW  EP  OW  HW  HW  EP  OW  
HW  HW  EP  OW  HW  HW  EP  OW  HW  HW  EP  OW  HW  HW  EP  OW  HW  HW  EP  OW  
HW  HW  EP  OW  HW  HW  EP  OW  HW  HW  EP  OW  HW  HW  EP  OW  HW  HW  EP  OW  
HW  HW  EP  OW  HW  HW  EP  OW  HW  HW  EP  OW  HW  HW  EP  OW  HW  HW  EP  OW  
HW  HW  EP  OW  HW  HW  EP  OW  HW  HW  EP  OW  HW  HW  EP  OW  HW  HW  EP  OW  
HW  HW  EP  OW  HW  HW  EP  OW  HW  HW  EP  OW  HW  HW  EP  OW  HW  HW  EP  OW  
HW  HW  EP  OW  HW  HW  EP  OW  HW  HW  EP  OW  HW  HW  EP  OW  HW  HW  EP  OW  
HW  HW  EP  OW  HW  HW  EP  OW  HW  HW  EP  OW  HW  HW  EP  OW  HW  HW  EP  OW  
HW  HW  EP  OW  HW  HW  EP  OW  HW  HW  EP  OW  HW  HW  EP  OW  HW  HW  EP  OW  
HW  HW  EP  OW  HW  HW  EP  OW  HW  HW  EP  OW  HW  HW  EP  OW  HW  HW  EP  OW  
HW  HW  EP  OW  HW  HW  EP  OW  HW  HW  EP  OW  HW  HW  EP  OW  HW  HW  EP  OW  
HW  HW  EP  OW  HW  HW  EP  OW  HW  HW  EP  OW  HW  HW  EP  OW  HW  HW  EP  OW  
HW  HW  EP  OW  HW  HW  EP  OW  HW  HW  EP  OW  HW  HW  EP  OW  HW  HW  EP  OW  
HW  HW  EP  OW  HW  HW  EP  OW  HW  HW  EP  OW  HW  HW  EP  OW  HW  HW  EP  OW  
HW  HW  EP  OW  HW  HW  EP  OW  HW  HW  EP  OW  HW  HW  EP  OW  HW  HW  EP  OW  
HW  HW  EP  OW  HW  HW  EP  OW  HW  HW  EP  OW  HW  HW  EP  OW  HW  HW  EP  OW  
HW  HW  EP  OW  HW  HW  EP  OW  HW  HW  EP  OW  HW  HW  EP  OW  HW  HW  EP  OW  
HW  HW  EP  OW  HW  HW  EP  OW  HW  HW  EP  OW  HW  HW  EP  OW  HW  HW  EP  OW  
HW  HW  EP  OW  HW  HW  EP  OW  HW  HW  EP  OW  HW  HW  EP  OW  HW  HW  EP  OW  
HW  HW  EP  OW  HW  HW  EP  OW  HW  HW  EP  OW  HW  HW  EP  OW  HW  HW  EP  OW  
HW  HW  EP  OW  HW  HW  EP  OW  HW  HW  EP  OW  HW  HW  EP  OW  HW  HW  EP  OW  
HW  HW  EP  OW  HW  HW  EP  OW  HW  HW  EP  OW  HW  HW  EP  OW  HW  HW  EP  OW  
HW  HW  EP  OW  HW  HW  EP  OW  HW  HW  EP  OW  HW  HW  EP  OW  HW  HW  EP  OW  
HW  HW  EP  OW  HW  HW  EP  OW  HW  HW  EP  OW  HW  HW  EP  OW  HW  HW  EP  OW  
HW  HW  EP  OW  HW  HW  EP  OW  HW  HW  EP  OW  HW  HW  EP  OW  HW  HW  EP  OW  
HW  HW  EP  OW  HW  HW  EP  OW  HW  HW  EP  OW  HW  HW  EP  OW  HW  HW  EP  OW  
HW  HW  EP  OW  HW  HW  EP  OW  HW  HW  EP  OW  HW  HW  EP  OW  HW  HW  EP  OW  
HW  HW  EP  OW  HW  HW  EP  OW  HW  HW  EP  OW  HW  HW  EP  OW  HW  HW  EP  OW  
HW  HW  EP  OW  HW  HW  EP  OW  HW  HW  EP  OW  HW  HW  EP  OW  HW  HW  EP  OW  
HW  HW  EP  OW  HW  HW  EP  OW  HW  HW  EP  OW  HW  HW  EP  OW  HW  HW  EP  OW  
HW  HW  EP  OW  HW  HW  EP  OW  HW  HW  EP  OW  HW  HW  EP  OW  HW  HW  EP  OW  
HW  HW  EP  OW  HW  HW  EP  OW  HW  HW  EP  OW  HW  HW  EP  OW  HW  HW  EP  OW  
HW  HW  EP  OW  HW  HW  EP  OW  HW  HW  EP  OW  HW  HW  EP  OW  HW  HW  EP  OW  
HW  HW  EP  OW  HW  HW  EP  OW  HW  HW  EP  OW  HW  HW  EP  OW  HW  HW  EP  OW  
HW  HW  EP  OW  HW  HW  EP  OW  HW  HW  EP  OW  HW  HW  EP  OW  HW  HW  EP  OW  
HW  HW  EP  OW  HW  HW  EP  OW  HW  HW  EP  OW  HW  HW  EP  OW  HW  HW  EP  OW  
HW  HW  EP  OW  HW  HW  EP  OW  HW  HW  EP  OW  HW  HW  EP  OW  HW  HW  EP  OW  
HW  HW  EP  OW  HW  HW  EP  OW  HW  HW  EP  OW  HW  HW  EP  OW  HW  HW  EP  OW  
HW  HW  EP  OW  HW  HW  EP  OW  HW  HW  EP  OW  HW  HW  EP  OW  HW  HW  EP  OW  
HW  HW  EP  OW  HW  HW  EP  OW  HW  HW  EP  OW  HW  HW  EP  OW  HW  HW  EP  OW  
HW  HW  EP  OW  HW  HW  EP  OW  HW  HW  EP  OW  HW  HW  EP  OW  HW  HW  EP  OW  
HW  HW  EP  OW  HW  HW  EP  OW  HW  HW  EP  OW  HW  HW  EP  OW  HW  HW  EP  OW  
HW  HW  EP  OW  HW  HW  EP  OW  HW  HW  EP  OW  HW  HW  EP  OW  HW  HW  EP  OW  
HW  HW  EP  OW  HW  HW  EP  OW  HW  HW  EP  OW  HW  HW  EP  OW  HW  HW  EP  OW  
HW  HW  EP  OW  HW  HW  EP  OW  HW  HW  EP  OW  HW  HW  EP  OW  HW  HW  EP  OW  
HW  HW  EP  OW  HW  HW  EP  OW  HW  HW  EP  OW  HW  HW  EP  OW  HW  HW  EP  OW  
HW  HW  EP  OW  HW  HW  EP  OW  HW  HW  EP  OW  HW  HW  EP  OW  HW  HW  EP  OW  
HW  HW  EP  OW  HW  HW  EP  OW  HW  HW  EP  OW  HW  HW  EP  OW  HW  HW  EP  OW  
HW  HW  EP  OW  HW  HW  EP  OW  HW  HW  EP  OW  HW  HW  EP  OW  HW  HW  EP  OW  
HW  HW  EP  OW  HW  HW  EP  OW  HW  HW  EP  OW  HW  HW  EP  OW  HW  HW  EP  OW  
HW  HW  EP  OW  HW  HW  EP  OW  HW  HW  EP  OW  HW  HW  EP  OW  HW  HW  EP  OW  
HW  HW  EP  OW  HW  HW  EP  OW  HW  HW  EP  OW  HW  HW  EP  OW  HW  HW  EP  OW  
HW  HW  EP  OW  HW  HW  EP  OW  HW  HW  EP  OW  HW  HW  EP  OW  HW  HW  EP  OW  
HW  HW  EP  OW  HW  HW  EP  OW  HW  HW  EP  OW  HW  HW  EP  OW  HW  HW  EP  OW  
HW  HW  EP  OW  HW  HW  EP  OW  HW  HW  EP  OW  HW  HW  EP  OW  HW  HW  EP  OW  
HW  HW  EP  OW  HW  HW  EP  OW  HW  HW  EP  OW  HW  HW  EP  OW  HW  HW  EP  OW  
HW  HW  EP  OW  HW  HW  EP  OW  HW  HW  EP  OW  HW  HW  EP  OW  HW  HW  EP  OW  
HW  HW  EP  OW  HW  HW  EP  OW  HW  HW  EP  OW  HW  HW  EP  OW  HW  HW  EP  OW  
HW  HW  EP  OW  HW  HW  EP  OW  HW  HW  EP  OW  HW  HW  EP  OW  HW  HW  EP  OW  
HW  HW  EP  OW  HW  HW  EP  OW  HW  HW  EP  OW  HW  HW  EP  OW  HW  HW  EP  OW  
HW  HW  EP  OW  HW  HW  EP  OW  HW  HW  EP  OW  HW  HW  EP  OW  HW  HW  EP  OW  
HW  HW  EP  OW  HW  HW  EP  OW  HW  HW  EP  OW  HW  HW  EP  OW  HW  HW  EP  OW  
HW  HW  EP  OW  HW  HW  EP  OW  HW  HW  EP  OW  HW  HW  EP  OW  HW  HW  EP  OW  
HW  HW  EP  OW  HW  HW  EP  OW  HW  HW  EP  OW  HW  HW  EP  OW  HW  HW  EP  OW  
HW  HW  EP  OW  HW  HW  EP  OW  HW  HW  EP  OW  HW  HW  EP  OW  HW  HW  EP  OW  
HW  HW  EP  OW  HW  HW  EP  OW  HW  HW  EP  OW  HW  HW  EP  OW  HW  HW  EP  OW  
HW  HW  EP  OW  HW  HW  EP  OW  HW  HW  EP  OW  HW  HW  EP  OW  HW  HW  EP  OW  
HW  HW  EP  OW  HW  HW  EP  OW  HW  HW  EP  OW  HW  HW  EP  OW  HW  HW  EP  OW  
HW  HW  EP  OW  HW  HW  EP  OW  HW  HW  EP  OW  HW  HW  EP  OW  HW  HW  EP  OW  
HW  HW  EP  OW  HW  HW  EP  OW  HW  HW  EP  OW  HW  HW  EP  OW  HW  HW  EP  OW  
HW  HW  EP  OW  HW  HW  EP  OW  HW  HW  EP  OW  HW  HW  EP  OW  HW  HW  EP  OW  
HW  HW  EP  OW  HW  HW  EP  OW  HW  HW  EP  OW  HW  HW  EP  OW  HW  HW  EP  OW  
HW  HW  EP  OW  HW  HW  EP  OW  HW  HW  EP  OW  HW  HW  EP  OW  HW  HW  EP  OW  
HW  HW  EP  OW  HW  HW  EP  OW  HW  HW  EP  OW  HW  HW  EP  OW  HW  HW  EP  OW  
HW  HW  EP  OW  HW  HW  EP  OW  HW  HW  EP  OW  HW  HW  EP  OW  HW  HW  EP  OW  
HW  HW  EP  OW  HW  HW  EP  OW  HW  HW  EP  OW  HW  HW  EP  OW  HW  HW  EP  OW  
HW  HW  EP  OW  HW  HW  EP  OW  HW  HW  EP  OW  HW  HW  EP  OW  HW  HW  EP  OW  
HW  HW  EP  OW  HW  HW  EP  OW  HW  HW  EP  OW  HW  HW  EP  OW  HW  HW  EP  OW  
HW  HW  EP  OW  HW  HW  EP  OW  HW  HW  EP  OW  HW  HW  EP  OW  HW  HW  EP  OW  
HW  HW  EP  OW  HW  HW  EP  OW  HW  HW  EP  OW  HW  HW  EP  OW  HW  HW  EP  OW  
HW  HW  EP  OW  HW  HW  EP  OW  HW  HW  EP  OW  HW  HW  EP  OW  HW  HW  EP  OW  
HW  HW  EP  OW  HW  HW  EP  OW  HW  HW  EP  OW  HW  HW  EP  OW  HW  HW  EP  OW  
HW  HW  EP  OW  HW  HW  EP  OW  HW  HW  EP  OW  HW  HW  EP  OW  HW  HW  EP  OW  
HW  HW  EP  OW  HW  HW  EP  OW  HW  HW  EP  OW  HW  HW  EP  OW  HW  HW  EP  OW  
HW  HW  EP  OW  HW  HW  EP  OW  HW  HW  EP  OW  HW  HW  EP  OW  HW  HW  EP  OW  
HW  HW  EP  OW  HW  HW  EP  OW  HW  HW  EP  OW  HW  HW  EP  OW  HW  HW  EP  OW  
HW  HW  EP  OW  HW  HW  EP  OW  HW  HW  EP  OW  HW  HW  EP  OW  HW  HW  EP  OW  
HW  HW  EP  OW  HW  HW  EP  OW  HW  HW  EP  OW  HW  HW  EP  OW  HW  HW  EP  OW  
HW  HW  EP  OW  HW  HW  EP  OW  HW  HW  EP  OW  HW  HW  EP  OW  HW  HW  EP  OW  
HW  HW  EP  OW  HW  HW  EP  OW  HW  HW  EP  OW  HW  HW  EP  OW  HW  HW  EP  OW  
HW  HW  EP  OW  HW  HW  EP  OW  HW  HW  EP  OW  HW  HW  EP  OW  HW  HW  EP  OW  
HW  HW  EP  OW  HW  HW  EP  OW  HW  HW  EP  OW  HW  HW  EP  OW  HW  HW  EP  OW  
HW  HW  EP  OW  HW  HW  EP  OW  HW  HW  EP  OW  HW  HW  EP  OW  HW  HW  EP  OW  
HW  HW  EP  OW  HW  HW  EP  OW  HW  HW  EP  OW  HW  HW  EP  OW  HW  HW  EP  OW  
HW  HW  EP  OW  HW  HW  EP  OW  HW  HW  EP  OW  HW  HW  EP  OW  HW  HW  EP  OW  
HW  HW  EP  OW  HW  HW  EP  OW  HW  HW  EP  OW  HW  HW  EP  OW  HW  HW  EP  OW  
HW  HW  EP  OW  HW  HW  EP  OW  HW  HW  EP  OW  HW  HW  EP  OW  HW  HW  EP  OW  
HW  HW  EP  OW  HW  HW  EP  OW  HW  HW  EP  OW  HW  HW  EP  OW  HW  HW  EP  OW  
HW  HW  EP  OW  HW  HW  EP  OW  HW  HW  EP  OW  HW  HW  EP  OW  HW  HW  EP  OW  
HW  HW  EP  OW  HW  HW  EP  OW  HW  HW  EP  OW  HW  HW  EP  OW  HW  HW  EP  OW  
HW  HW  EP  OW  HW  HW  EP  OW  HW  HW  EP  OW  HW  HW  EP  OW  HW  HW  EP  OW  
HW  HW  EP  OW  HW  HW  EP  OW  HW  HW  EP  OW  HW  HW  EP  OW  HW  HW  EP  OW  
HW  HW  EP  OW  HW  HW  EP  OW  HW  HW  EP  OW  HW  HW  EP  OW  HW  HW  EP  OW  
HW  HW  EP  OW  HW  HW  EP  OW  HW  HW  EP  OW  HW  HW  EP  OW  HW  HW  EP  OW  
HW  HW  EP  OW  HW  HW  EP  OW  HW  HW  EP  OW  HW  HW  EP  OW  HW  HW  EP  OW  
HW  HW  EP  OW  HW  HW  EP  OW  HW  HW  EP  OW  HW  HW  EP  OW  HW  HW  EP  OW  
HW  HW  EP  OW  HW  HW  EP  OW  HW  HW  EP  OW  HW  HW  EP  OW  HW  HW  EP  OW  
HW  HW  EP  OW  HW  HW  EP  OW  HW  HW  EP  OW  HW  HW  EP  OW  HW  HW  EP  OW  
HW  HW  EP  OW  HW  HW  EP  OW  HW  HW  EP  OW  HW  HW  EP  OW  HW  HW  EP  OW  
HW  HW  EP  OW  HW  HW  EP  OW  HW  HW  EP  OW  HW  HW  EP  OW  HW  HW  EP  OW  
HW  HW  EP  OW  HW  HW  EP  OW  HW  HW  EP  OW  HW  HW  EP  OW  HW  HW  EP  OW  
HW  HW  EP  OW  HW  HW  EP  OW  HW  HW  EP  OW  HW  HW  EP  OW  HW  HW  EP  OW  
HW  HW  EP  OW  HW  HW  EP  OW  HW  HW  EP  OW  HW  HW  EP  OW  HW  HW  EP  OW  
HW  HW  EP  OW  HW  HW  EP  OW  HW  HW  EP  OW  HW  HW  EP  OW  HW  HW  EP  OW  
HW  HW  EP  OW  HW  HW  EP  OW  HW  HW  EP  OW  HW  HW  EP  OW  HW  HW  EP  OW  
HW  HW  EP  OW  HW  HW  EP  OW  HW  HW  EP  OW  HW  HW  EP  OW  HW  HW  EP  OW  
HW  HW  EP  OW  HW  HW  EP  OW  HW  HW  EP  OW  HW  HW  EP  OW  HW  HW  EP  OW  
HW  HW  EP  OW  HW  HW  EP  OW  HW  HW  EP  OW  HW  HW  EP  OW  HW  HW  EP  OW  
HW  HW  EP  OW  HW  HW  EP  OW  HW  HW  EP  OW  HW  HW  EP  OW  HW  HW  EP  OW  
HW  HW  EP  OW  HW  HW  EP  OW  HW  HW  EP  OW  HW  HW  EP  OW  HW  HW  EP  OW  
HW  HW  EP  OW  HW  HW  EP  OW  HW  HW  EP  OW  HW  HW  EP  OW  HW  HW  EP  OW  
HW  HW  EP  OW  HW  HW  EP  OW  HW  HW  EP  OW  HW  HW  EP  OW  HW  HW  EP  OW  
HW  HW  EP  OW  HW  HW  EP  OW  HW  HW  EP  OW  HW  HW  EP  OW  HW  HW  EP  OW  
HW  HW  EP  OW  HW  HW  EP  OW  HW  HW  EP  OW  HW  HW  EP  OW  HW  HW  EP  OW  
HW  HW  EP  OW  HW  HW  EP  OW  HW  HW  EP  OW  HW  HW  EP  OW  HW  HW  EP  OW  
HW  HW  EP  OW  HW  HW  EP  OW  HW  HW  EP  OW  HW  HW  EP  OW  HW  HW  EP  OW  
HW  HW  EP  OW  HW  HW  EP  OW  HW  HW  EP  OW  HW  HW  EP  OW  HW  HW  EP  OW  
HW  HW  EP  OW  HW  HW  EP  OW  HW  HW  EP  OW  HW  HW  EP  OW  HW  HW  EP  OW  
HW  HW  EP  OW  HW  HW  EP  OW  HW  HW  EP  OW  HW  HW  EP  OW  HW  HW  EP  OW  
HW  HW  EP  OW  HW  HW  EP  OW  HW  HW  EP  OW  HW  HW  EP  OW  HW  HW  EP  OW  
HW  HW  EP  OW  HW  HW  EP  OW  HW  HW  EP  OW  HW  HW  EP  OW  HW  HW  EP  OW  
HW  HW  EP  OW  HW  HW  EP  OW  HW  HW  EP  OW  HW  HW  EP  OW  HW  HW  EP  OW  
HW  HW  EP  OW  HW  HW  EP  OW  HW  HW  EP  OW  HW  HW  EP  OW  HW  HW  EP  OW  
HW  HW  EP  OW  HW  HW  EP  OW  HW  HW  EP  OW  HW  HW  EP  OW  HW  HW  EP  OW  
HW  HW  EP  OW  HW  HW  EP  OW  HW  HW  EP  OW  HW  HW  EP  OW  HW  HW  EP  OW  
HW  HW  EP  OW  HW  HW  EP  OW  HW  HW  EP  OW  HW  HW  EP  OW  HW  HW  EP  OW  
HW  HW  EP  OW  HW  HW  EP  OW  HW  HW  EP  OW  HW  HW  EP  OW  HW  HW  EP  OW  
HW  HW  EP  OW  HW  HW  EP  OW  HW  HW  EP  OW  HW  HW  EP  OW  HW  HW  EP  OW  
HW  HW  EP  OW  HW  HW  EP  OW  HW  HW  EP  OW  HW  HW  EP  OW  HW  HW  EP  OW  
HW  HW  EP  OW  HW  HW  EP  OW  HW  HW  EP  OW  HW  HW  EP  OW  HW  HW  EP  OW  
HW  HW  EP  OW  HW  HW  EP  OW  HW  HW  EP  OW  HW  HW  EP  OW  HW  HW  EP  OW  
HW  HW  EP  OW  HW  HW  EP  OW  HW  HW  EP  OW  HW  HW  EP  OW  HW  HW  EP  OW  
HW  HW  EP  OW  HW  HW  EP  OW  HW  HW  EP  OW  HW  HW  EP  OW  HW  HW  EP  OW  
HW  HW  EP  OW  HW  HW  EP  OW  HW  HW  EP  OW  HW  HW  EP  OW  HW  HW  EP  OW  
HW  HW  EP  OW  HW  HW  EP  OW  HW  HW  EP  OW  HW  HW  EP  OW  HW  HW  EP  OW  
HW  HW  EP  OW  HW  HW  EP  OW  HW  HW  EP  OW  HW  HW  EP  OW  HW  HW  EP  OW  
HW  HW  EP  OW  HW  HW  EP  OW  HW  HW  EP  OW  HW  HW  EP  OW  HW  HW  EP  OW  
HW  HW  EP  OW  HW  HW  EP  OW  HW  HW  EP  OW  HW  HW  EP  OW  HW  HW  EP  OW  
HW  HW  EP  OW  HW  HW  EP  OW  HW  HW  EP  OW  HW  HW  EP  OW  HW  HW  EP  OW  
HW  HW  EP  OW  HW  HW  EP  OW  HW  HW  EP  OW  HW  HW  EP  OW  HW  HW  EP  OW  
HW  HW  EP  OW  HW  HW  EP  OW  HW  HW  EP  OW  HW  HW  EP  OW  HW  HW  EP  OW  
HW  HW  EP  OW  HW  HW  EP  OW  HW  HW  EP  OW  HW  HW  EP  OW  HW  HW  EP  OW  
HW  HW  EP  OW  HW  HW  EP  OW  HW  HW  EP  OW  HW  HW  EP  OW  HW  HW  EP  OW  
HW  HW  EP  OW  HW  HW  EP  OW  HW  HW  EP  OW  HW  HW  EP  OW  HW  HW  EP  OW  
HW  HW  EP  OW  HW  HW  EP  OW  HW  HW  EP  OW  HW  HW  EP  OW  HW  HW  EP  OW  
HW  HW  EP  OW  HW  HW  EP  OW  HW  HW  EP  OW  HW  HW  EP  OW  HW  HW  EP  OW  
HW  HW  EP  OW  HW  HW  EP  OW  HW  HW  EP  OW  HW  HW  EP  OW  HW  HW  EP  OW  
HW  HW  EP  OW  HW  HW  EP  OW  HW  HW  EP  OW  HW  HW  EP  OW  HW  HW  EP  OW  
HW  HW  EP  OW  HW  HW  EP  OW  HW  HW  EP  OW  HW  HW  EP  OW  HW  HW  EP  OW  
HW  HW  EP  OW  HW  HW  EP  OW  HW  HW  EP  OW  HW  HW  EP  OW  HW  HW  EP  OW  
HW  HW  EP  OW  HW  HW  EP  OW  HW  HW  EP  OW  HW  HW  EP  OW  HW  HW  EP  OW  
HW  HW  EP  OW  HW  HW  EP  OW  HW  HW  EP  OW  HW  HW  EP  OW  HW  HW  EP  OW  
HW  HW  EP  OW  HW  HW  EP  OW  HW  HW  EP  OW  HW  HW  EP  OW  HW  HW  EP  OW  
HW  HW  EP  OW  HW  HW  EP  OW  HW  HW  EP  OW  HW  HW  EP  OW  HW  HW  EP  OW  
HW  HW  EP  OW  HW  HW  EP  OW  HW  HW  EP  OW  HW  HW  EP  OW  HW  HW  EP  OW  
HW  HW  EP  OW  HW  HW  EP  OW  HW  HW  EP  OW  HW  HW  EP  OW  HW  HW  EP  OW  
HW  HW  EP  OW  HW  HW  EP  OW  HW  HW  EP  OW  HW  HW  EP  OW  HW  HW  EP  OW  
HW  HW  EP  OW  HW  HW  EP  OW  HW  HW  EP  OW  HW  HW  EP  OW  HW  HW  EP  OW  
HW  HW  EP  OW  HW  HW  EP  OW  HW  HW  EP  OW  HW  HW  EP  OW  HW  HW  EP  OW  
HW  HW  EP  OW  HW  HW  EP  OW  HW  HW  EP  OW  HW  HW  EP  OW  HW  HW  EP  OW  
HW  HW  EP  OW  HW  HW  EP  OW  HW  HW  EP  OW  HW  HW  EP  OW  HW  HW  EP  OW  
HW  HW  EP  OW  HW  HW  EP  OW  HW  HW  EP  OW  HW  HW  EP  OW  HW  HW  EP  OW  
HW  HW  EP  OW  HW  HW  EP  OW  HW  HW  EP  OW  HW  HW  EP  OW  HW  HW  EP  OW  
HW  HW  EP  OW  HW  HW  EP  OW  HW  HW  EP  OW  HW  HW  EP  OW  HW  HW  EP  OW  
HW  HW  EP  OW  HW  HW  EP  OW  HW  HW  EP  OW  HW  HW  EP  OW  HW  HW  EP  OW  
HW  HW  EP  OW  HW  HW  EP  OW  HW  HW  EP  OW  HW  HW  EP  OW  HW  HW  EP  OW  
HW  HW  EP  OW  HW  HW  EP  OW  HW  HW  EP  OW  HW  HW  EP  OW  HW  HW  EP  OW  
HW  HW  EP  OW  HW  HW  EP  OW  HW  HW  EP  OW  HW  HW  EP  OW  HW  HW  EP  OW  
HW  HW  EP  OW  HW  HW  EP  OW  HW  HW  EP  OW  HW  HW  EP  OW  HW  HW  EP  OW  
HW  HW  EP  OW  HW  HW  EP  OW  HW  HW  EP  OW  HW  HW  EP  OW  HW  HW  EP  OW  
HW  HW  EP  OW  HW  HW  EP  OW  HW  HW  EP  OW  HW  HW  EP  OW  HW  HW  EP  OW  
HW  HW  EP  OW  HW  HW  EP  OW  HW  HW  EP  OW  HW  HW  EP  OW  HW  HW  EP  OW  
HW  HW  EP  OW  HW  HW  EP  OW  HW  HW  EP  OW  HW  HW  EP  OW  HW  HW  EP  OW  
HW  HW  EP  OW  HW  HW  EP  OW  HW  HW  EP  OW  HW  HW  EP  OW  HW  HW  EP  OW  
HW  HW  EP  OW  HW  HW  EP  OW  HW  HW  EP  OW  HW  HW  EP  OW  HW  HW  EP  OW  
HW  HW  EP  OW  HW  HW  EP  OW  HW  HW  EP  OW  HW  HW  EP  OW  HW  HW  EP  OW  
HW  HW  EP  OW  HW  HW  EP  OW  HW  HW  EP  OW  HW  HW  EP  OW  HW  HW  EP  OW  
HW  HW  EP  OW  HW  HW  EP  OW  HW  HW  EP  OW  HW  HW  EP  OW  HW  HW  EP  OW  
HW  HW  EP  OW  HW  HW  EP  OW  HW  HW  EP  OW  HW  HW  EP  OW  HW  HW  EP  OW  
HW  HW  EP  OW  HW  HW  EP  OW  HW  HW  EP  OW  HW  HW  EP  OW  HW  HW  EP  OW  
HW  HW  EP  OW  HW  HW  EP  OW  HW  HW  EP  OW  HW  HW  EP  OW  HW  HW  EP  OW  
HW  HW  EP  OW  HW  HW  EP  OW  HW  HW  EP  OW  HW  HW  EP  OW  HW  HW  EP  OW  
HW  HW  EP  OW  HW  HW  EP  OW  HW  HW  EP  OW  HW  HW  EP  OW  HW  HW  EP  OW  
HW  HW  EP  OW  HW  HW  EP  OW  HW  HW  EP  OW  HW  HW  EP  OW  HW  HW  EP  OW  
HW  HW  EP  OW  HW  HW  EP  OW  HW  HW  EP  OW  HW  HW  EP  OW  HW  HW  EP  OW  
HW  HW  EP  OW  HW  HW  EP  OW  HW  HW  EP  OW  HW  HW  EP  OW  HW  HW  EP  OW  
HW  HW  EP  OW  HW  HW  EP  OW  HW  HW  EP  OW  HW  HW  EP  OW  HW  HW  EP  OW  
HW  HW  EP  OW  HW  HW  EP  OW  HW  HW  EP  OW  HW  HW  EP  OW  HW  HW  EP  OW  
HW  HW  EP  OW  HW  HW  EP  OW  HW  HW  EP  OW  HW  HW  EP  OW  HW  HW  EP  OW  
HW  HW  EP  OW  HW  HW  EP  OW  HW  HW  EP  OW  HW  HW  EP  OW  HW  HW  EP  OW  
HW  HW  EP  OW  HW  HW  EP  OW  HW  HW  EP  OW  HW  HW  EP  OW  HW  HW  EP  OW  
HW  HW  EP  OW  HW  HW  EP  OW  HW  HW  EP  OW  HW  HW  EP  OW  HW  HW  EP  OW  
HW  HW  EP  OW  HW  HW  EP  OW  HW  HW  EP  OW  HW  HW  EP  OW  HW  HW  EP  OW  
HW  HW  EP  OW  HW  HW  EP  OW  HW  HW  EP  OW  HW  HW  EP  OW  HW  HW  EP  OW  
HW  HW  EP  OW  HW  HW  EP  OW  HW  HW  EP  OW  HW  HW  EP  OW  HW  HW  EP  OW  
HW  HW  EP  OW  HW  HW  EP  OW  HW  HW  EP  OW  HW  HW  EP  OW  HW  HW  EP  OW  
HW  HW  EP  OW  HW  HW  EP  OW  HW  HW  EP  OW  HW  HW  EP  OW  HW  HW  EP  OW  
HW  HW  EP  OW  HW  HW  EP  OW  HW  HW  EP  OW  HW  HW  EP  OW  HW  HW  EP  OW  
HW  HW  EP  OW  HW  HW  EP  OW  HW  HW  EP  OW  HW  HW  EP  OW  HW  HW  EP  OW  
HW  HW  EP  OW  HW  HW  EP  OW  HW  HW  EP  OW  HW  HW  EP  OW  HW  HW  EP  OW  
HW  HW  EP  OW  HW  HW  EP  OW  HW  HW  EP  OW  HW  HW  EP  OW  HW  HW  EP  OW  
HW  HW  EP  OW  HW  HW  EP  OW  HW  HW  EP  OW  HW  HW  EP  OW  HW  HW  EP  OW  
HW  HW  EP  OW  HW  HW  EP  OW  HW  HW  EP  OW  HW  HW  EP  OW  HW  HW  EP  OW  
HW  HW  EP  OW  HW  HW  EP  OW  HW  HW  EP  OW  HW  HW  EP  OW  HW  HW  EP  OW  
HW  HW  EP  OW  HW  HW  EP  OW  HW  HW  EP  OW  HW  HW  EP  OW  HW  HW  EP  OW  
HW  HW  EP  OW  HW  HW  EP  OW  HW  HW  EP  OW  HW  HW  EP  OW  HW  HW  EP  OW  
HW  HW  EP  OW  HW  HW  EP  OW  HW  HW  EP  OW  HW  HW  EP  OW  HW  HW  EP  OW  
HW  HW  EP  OW  HW  HW  EP  OW  HW  HW  EP  OW  HW  HW  EP  OW  HW  HW  EP  OW  
HW  HW  EP  OW  HW  HW  EP  OW  HW  HW  EP  OW  HW  HW  EP  OW  HW  HW  EP  OW  
HW  HW  EP  OW  HW  HW  EP  OW  HW  HW  EP  OW  HW  HW  EP  OW  HW  HW  EP  OW  
HW  HW  EP  OW  HW  HW  EP  OW  HW  HW  EP  OW  HW  HW  EP  OW  HW  HW  EP  OW  
HW  HW  EP  OW  HW  HW  EP  OW  HW  HW  EP  OW  HW  HW  EP  OW  HW  HW  EP  OW  
HW  HW  EP  OW  HW  HW  EP  OW  HW  HW  EP  OW  HW  HW  EP  OW  HW  HW  EP  OW  
HW  HW  EP  OW  HW  HW  EP  OW  HW  HW  EP  OW  HW  HW  EP  OW  HW  HW  EP  OW  
HW  HW  EP  OW  HW  HW  EP  OW  HW  HW  EP  OW  HW  HW  EP  OW  HW  HW  EP  OW  
HW  HW  EP  OW  HW  HW  EP  OW  HW  HW  EP  OW  HW  HW  EP  OW  HW  HW  EP  OW  
HW  HW  EP  OW  HW  HW  EP  OW  HW  HW  EP  OW  HW  HW  EP  OW  HW  HW  EP  OW  
HW  HW  EP  OW  HW  HW  EP  OW  HW  HW  EP  OW  HW  HW  EP  OW  HW  HW  EP  OW  
HW  HW  EP  OW  HW  HW  EP  OW  HW  HW  EP  OW  HW  HW  EP  OW  HW  HW  EP  OW  
HW  HW  EP  OW  HW  HW  EP  OW  HW  HW  EP  OW  HW  HW  EP  OW  HW  HW  EP  OW  
HW  HW  EP  OW  HW  HW  EP  OW  HW  HW  EP  OW  HW  HW  EP  OW  HW  HW  EP  OW  
HW  HW  EP  OW  HW  HW  EP  OW  HW  HW  EP  OW  HW  HW  EP  OW  HW  HW  EP  OW  
HW  HW  EP  OW  HW  HW  EP  OW  HW  HW  EP  OW  HW  HW  EP  OW  HW  HW  EP  OW  
HW  HW  EP  OW  HW  HW  EP  OW  HW  HW  EP  OW  HW  HW  EP  OW  HW  HW  EP  OW  
HW  HW  EP  OW  HW  HW  EP  OW  HW  HW  EP  OW  HW  HW  EP  OW  HW  HW  EP  OW  
HW  HW  EP  OW  HW  HW  EP  OW  HW  HW  EP  OW  HW  HW  EP  OW  HW  HW  EP  OW  
HW  HW  EP  OW  HW  HW  EP  OW  HW  HW  EP  OW  HW  HW  EP  OW  HW  HW  EP  OW  
HW  HW  EP  OW  HW  HW  EP  OW  HW  HW  EP  OW  HW  HW  EP  OW  HW  HW  EP  OW  
HW  HW  EP  OW  HW  HW  EP  OW  HW  HW  EP  OW  HW  HW  EP  OW  HW  HW  EP  OW  
HW  HW  EP  OW  HW  HW  EP  OW  HW  HW  EP  OW  HW  HW  EP  OW  HW  HW  EP  OW  
HW  HW  EP  OW  HW  HW  EP  OW  HW  HW  EP  OW  HW  HW  EP  OW  HW  HW  EP  OW  
HW  HW  EP  OW  HW  HW  EP  OW  HW  HW  EP  OW  HW  HW  EP  OW  HW  HW  EP  OW  
HW  HW  EP  OW  HW  HW  EP  OW  HW  HW  EP  OW  HW  HW  EP  OW  HW  HW  EP  OW  
HW  HW  EP  OW  HW  HW  EP  OW  HW  HW  EP  OW  HW  HW  EP  OW  HW  HW  EP  OW  
HW  HW  EP  OW  HW  HW  EP  OW  HW  HW  EP  OW  HW  HW  EP  OW  HW  HW  EP  OW  
HW  HW  EP  OW  HW  HW  EP  OW  HW  HW  EP  OW  HW  HW  EP  OW  HW  HW  EP  OW  
HW  HW  EP  OW  HW  HW  EP  OW  HW  HW  EP  OW  HW  HW  EP  OW  HW  HW  EP  OW  
HW  HW  EP  OW  HW  HW  EP  OW  HW  HW  EP  OW  HW  HW  EP  OW  HW  HW  EP  OW  
HW  HW  EP  OW  HW  HW  EP  OW  HW  HW  EP  OW  HW  HW  EP  OW  HW  HW  EP  OW  
HW  HW  EP  OW  HW  HW  EP  OW  HW  HW  EP  OW  HW  HW  EP  OW  HW  HW  EP  OW  
HW  HW  EP  OW  HW  HW  EP  OW  HW  HW  EP  OW  HW  HW  EP  OW  HW  HW  EP  OW  
HW  HW  EP  OW  HW  HW  EP  OW  HW  HW  EP  OW  HW  HW  EP  OW  HW  HW  EP  OW  
HW  HW  EP  OW  HW  HW  EP  OW  HW  HW  EP  OW  HW  HW  EP  OW  HW  HW  EP  OW  
HW  HW  EP  OW  HW  HW  EP  OW  HW  HW  EP  OW  HW  HW  EP  OW  HW  HW  EP  OW  
HW  HW  EP  OW  HW  HW  EP  OW  HW  HW  EP  OW  HW  HW  EP  OW  HW  HW  EP  OW  
HW  HW  EP  OW  HW  HW  EP  OW  HW  HW  EP  OW  HW  HW  EP  OW  HW  HW  EP  OW  
HW  HW  EP  OW  HW  HW  EP  OW  HW  HW  EP  OW  HW  HW  EP  OW  HW  HW  EP  OW  
HW  HW  EP  OW  HW  HW  EP  OW  HW  HW  EP  OW  HW  HW  EP  OW  HW  HW  EP  OW  
HW  HW  EP  OW  HW  HW  EP  OW  HW  HW  EP  OW  HW  HW  EP  OW  HW  HW  EP  OW  
HW  HW  EP  OW  HW  HW  EP  OW  HW  HW  EP  OW  HW  HW  EP  OW  HW  HW  EP  OW  
HW  HW  EP  OW  HW  HW  EP  OW  HW  HW  EP  OW  HW  HW  EP  OW  HW  HW  EP  OW  
HW  HW  EP  OW  HW  HW  EP  OW  HW  HW  EP  OW  HW  HW  EP  OW  HW  HW  EP  OW  
HW  HW  EP  OW  HW  HW  EP  OW  HW  HW  EP  OW  HW  HW  EP  OW  HW  HW  EP  OW  
HW  HW  EP  OW  HW  HW  EP  OW  HW  HW  EP  OW  HW  HW  EP  OW  HW  HW  EP  OW  
HW  HW  EP  OW  HW  HW  EP  OW  HW  HW  EP  OW  HW  HW  EP  OW  HW  HW  EP  OW  
HW  HW  EP  OW  HW  HW  EP  OW  HW  HW  EP  OW  HW  HW  EP  OW  HW  HW  EP  OW  
HW  HW  EP  OW  HW  HW  EP  OW  HW  HW  EP  OW  HW  HW  EP  OW  HW  HW  EP  OW  
HW  HW  EP  OW  HW  HW  EP  OW  HW  HW  EP  OW  HW  HW  EP  OW  HW  HW  EP  OW  
HW  HW  EP  OW  HW  HW  EP  OW  HW  HW  EP  OW  HW  HW  EP  OW  HW  HW  EP  OW  
HW  HW  EP  OW  HW  HW  EP  OW  HW  HW  EP  OW  HW  HW  EP  OW  HW  HW  EP  OW  
HW  HW  EP  OW  HW  HW  EP  OW  HW  HW  EP  OW  HW  HW  EP  OW  HW  HW  EP  OW  
HW  HW  EP  OW  HW  HW  EP  OW  HW  HW  EP  OW  HW  HW  EP  OW  HW  HW  EP  OW  
HW  HW  EP  OW  HW  HW  EP  OW  HW  HW  EP  OW  HW  HW  EP  OW  HW  HW  EP  OW  
HW  HW  EP  OW  HW  HW  EP  OW  HW  HW  EP  OW  HW  HW  EP  OW  HW  HW  EP  OW  
HW  HW  EP  OW  HW  HW  EP  OW  HW  HW  EP  OW  HW  HW  EP  OW  HW  HW  EP  OW  
HW  HW  EP  OW  HW  HW  EP  OW  HW  HW  EP  OW  HW  HW  EP  OW  HW  HW  EP  OW  
HW  HW  EP  OW  HW  HW  EP  OW  HW  HW  EP  OW  HW  HW  EP  OW  HW  HW  EP  OW  
HW  HW  EP  OW  HW  HW  EP  OW  HW  HW  EP  OW  HW  HW  EP  OW  HW  HW  EP  OW  
HW  HW  EP  OW  HW  HW  EP  OW  HW  HW  EP  OW  HW  HW  EP  OW  HW  HW  EP  OW  
HW  HW  EP  OW  HW  HW  EP  OW  HW  HW  EP  OW  HW  HW  EP  OW  HW  HW  EP  OW  
HW  HW  EP  OW  HW  HW  EP  OW  HW  HW  EP  OW  HW  HW  EP  OW  HW  HW  EP  OW  
HW  HW  EP  OW  HW  HW  EP  OW  HW  HW  EP  OW  HW  HW  EP  OW  HW  HW  EP  OW  
HW  HW  EP  OW  HW  HW  EP  OW  HW  HW  EP  OW  HW  HW  EP  OW  HW  HW  EP  OW  
HW  HW  EP  OW  HW  HW  EP  OW  HW  HW  EP  OW  HW  HW  EP  OW  HW  HW  EP  OW  
HW  HW  EP  OW  HW  HW  EP  OW  HW  HW  EP  OW  HW  HW  EP  OW  HW  HW  EP  OW  
HW  HW  EP  OW  HW  HW  EP  OW  HW  HW  EP  OW  HW  HW  EP  OW  HW  HW  EP  OW  
HW  HW  EP  OW  HW  HW  EP  OW  HW  HW  EP  OW  HW  HW  EP  OW  HW  HW  EP  OW  
HW  HW  EP  OW  HW  HW  EP  OW  HW  HW  EP  OW  HW  HW  EP  OW  HW  HW  EP  OW  
HW  HW  EP  OW  HW  HW  EP  OW  HW  HW  EP  OW  HW  HW  EP  OW  HW  HW  EP  OW  
HW  HW  EP  OW  HW  HW  EP  OW  HW  HW  EP  OW  HW  HW  EP  OW  HW  HW  EP  OW  
HW  HW  EP  OW  HW  HW  EP  OW  HW  HW  EP  OW  HW  HW  EP  OW  HW  HW  EP  OW  
HW  HW  EP  OW  HW  HW  EP  OW  HW  HW  EP  OW  HW  HW  EP  OW  HW  HW  EP  OW  
HW  HW  EP  OW  HW  HW  EP  OW  HW  HW  EP  OW  HW  HW  EP  OW  HW  HW  EP  OW  
HW  HW  EP  OW  HW  HW  EP  OW  HW  HW  EP  OW  HW  HW  EP  OW  HW  HW  EP  OW  
HW  HW  EP  OW  HW  HW  EP  OW  HW  HW  EP  OW  HW  HW  EP  OW  HW  HW  EP  OW  
HW  HW  EP  OW  HW  HW  EP  OW  HW  HW  EP  OW  HW  HW  EP  OW  HW  HW  EP  OW  
HW  HW  EP  OW  HW  HW  EP  OW  HW  HW  EP  OW  HW  HW  EP  OW  HW  HW  EP  OW  
HW  HW  EP  OW  HW  HW  EP  OW  HW  HW  EP  OW  HW  HW  EP  OW  HW  HW  EP  OW  
HW  HW  EP  OW  HW  HW  EP  OW  HW  HW  EP  OW  HW  HW  EP  OW  HW  HW  EP  OW  
HW  HW  EP  OW  HW  HW  EP  OW  HW  HW  EP  OW  HW  HW  EP  OW  HW  HW  EP  OW  
HW  HW  EP  OW  HW  HW  EP  OW  HW  HW  EP  OW  HW  HW  EP  OW  HW  HW  EP  OW  
HW  HW  EP  OW  HW  HW  EP  OW  HW  HW  EP  OW  HW  HW  EP  OW  HW  HW  EP  OW  
HW  HW  EP  OW  HW  HW  EP  OW  HW  HW  EP  OW  HW  HW  EP  OW  HW  HW  EP  OW  
HW  HW  EP  OW  HW  HW  EP  OW  HW  HW  EP  OW  HW  HW  EP  OW  HW  HW  EP  OW  
HW  HW  EP  OW  HW  HW  EP  OW  HW  HW  EP  OW  HW  HW  EP  OW  HW  HW  EP  OW  
HW  HW  EP  OW  HW  HW  EP  OW  HW  HW  EP  OW  HW  HW  EP  OW  HW  HW  EP  OW  
HW  HW  EP  OW  HW  HW  EP  OW  HW  HW  EP  OW  HW  HW  EP  OW  HW  HW  EP  OW  
HW  HW  EP  OW  HW  HW  EP  OW  HW  HW  EP  OW  HW  HW  EP  OW  HW  HW  EP  OW  
HW  HW  EP  OW  HW  HW  EP  OW  HW  HW  EP  OW  HW  HW  EP  OW  HW  HW  EP  OW  
HW  HW  EP  OW  HW  HW  EP  OW  HW  HW  EP  OW  HW  HW  EP  OW  HW  HW  EP  OW  
HW  HW  EP  OW  HW  HW  EP  OW  HW  HW  EP  OW  HW  HW  EP  OW  HW  HW  EP  OW  
HW  HW  EP  OW  HW  HW  EP  OW  HW  HW  EP  OW  HW  HW  EP  OW  HW  HW  EP  OW  
HW  HW  EP  OW  HW  HW  EP  OW  HW  HW  EP  OW  HW  HW  EP  OW  HW  HW  EP  OW  
HW  HW  EP  OW  HW  HW  EP  OW  HW  HW  EP  OW  HW  HW  EP  OW  HW  HW  EP  OW  
HW  HW  EP  OW  HW  HW  EP  OW  HW  HW  EP  OW  HW  HW  EP  OW  HW  HW  EP  OW  
HW  HW  EP  OW  HW  HW  EP  OW  HW  HW  EP  OW  HW  HW  EP  OW  HW  HW  EP  OW  
HW  HW  EP  OW  HW  HW  EP  OW  HW  HW  EP  OW  HW  HW  EP  OW  HW  HW  EP  OW  
HW  HW  EP  OW  HW  HW  EP  OW  HW  HW  EP  OW  HW  HW  EP  OW  HW  HW  EP  OW  
HW  HW  EP  OW  HW  HW  EP  OW  HW  HW  EP  OW  HW  HW  EP  OW  HW  HW  EP  OW  
HW  HW  EP  OW  HW  HW  EP  OW  HW  HW  EP  OW  HW  HW  EP  OW  HW  HW  EP  OW  
HW  HW  EP  OW  HW  HW  EP  OW  HW  HW  EP  OW  HW  HW  EP  OW  HW  HW  EP  OW  
HW  HW  EP  OW  HW  HW  EP  OW  HW  HW  EP  OW  HW  HW  EP  OW  HW  HW  EP  OW  
HW  HW  EP  OW  HW  HW  EP  OW  HW  HW  EP  OW  HW  HW  EP  OW  HW  HW  EP  OW  
HW  HW  EP  OW  HW  HW  EP  OW  HW  HW  EP  OW  HW  HW  EP  OW  HW  HW  EP  OW  
HW  HW  EP  OW  HW  HW  EP  OW  HW  HW  EP  OW  HW  HW  EP  OW  HW  HW  EP  OW  
HW  HW  EP  OW  HW  HW  EP  OW  HW  HW  EP  OW  HW  HW  EP  OW  HW  HW  EP  OW  
HW  HW  EP  OW  HW  HW  EP  OW  HW  HW  EP  OW  HW  HW  EP  OW  HW  HW  EP  OW  
HW  HW  EP  OW  HW  HW  EP  OW  HW  HW  EP  OW  HW  HW  EP  OW  HW  HW  EP  OW  
HW  HW  EP  OW  HW  HW  EP  OW  HW  HW  EP  OW  HW  HW  EP  OW  HW  HW  EP  OW  
HW  HW  EP  OW  HW  HW  EP  OW  HW  HW  EP  OW  HW  HW  EP  OW  HW  HW  EP  OW  
HW  HW  EP  OW  HW  HW  EP  OW  HW  HW  EP  OW  HW  HW  EP  OW  HW  HW  EP  OW  
HW  HW  EP  OW  HW  HW  EP  OW  HW  HW  EP  OW  HW  HW  EP  OW  HW  HW  EP  OW  
HW  HW  EP  OW  HW  HW  EP  OW  HW  HW  EP  OW  HW  HW  EP  OW  HW  HW  EP  OW  
HW  HW  EP  OW  HW  HW  EP  OW  HW  HW  EP  OW  HW  HW  EP  OW  HW  HW  EP  OW  
HW  HW  EP  OW  HW  HW  EP  OW  HW  HW  EP  OW  HW  HW  EP  OW  HW  HW  EP  OW  
HW  HW  EP  OW  HW  HW  EP  OW  HW  HW  EP  OW  HW  HW  EP  OW  HW  HW  EP  OW  
HW  HW  EP  OW  HW  HW  EP  OW  HW  HW  EP  OW  HW  HW  EP  OW  HW  HW  EP  OW  
HW  HW  EP  OW  HW  HW  EP  OW  HW  HW  EP  OW  HW  HW  EP  OW  HW  HW  EP  OW  
HW  HW  EP  OW  HW  HW  EP  OW  HW  HW  EP  OW  HW  HW  EP  OW  HW  HW  EP  OW  
HW  HW  EP  OW  HW  HW  EP  OW  HW  HW  EP  OW  HW  HW  EP  OW  HW  HW  EP  OW  
HW  HW  EP  OW  HW  HW  EP  OW  HW  HW  EP  OW  HW  HW  EP  OW  HW  HW  EP  OW  
HW  HW  EP  OW  HW  HW  EP  OW  HW  HW  EP  OW  HW  HW  EP  OW  HW  HW  EP  OW  
HW  HW  EP  OW  HW  HW  EP  OW  HW  HW  EP  OW  HW  HW  EP  OW  HW  HW  EP  OW  
HW  HW  EP  OW  HW  HW  EP  OW  HW  HW  EP  OW  HW  HW  EP  OW  HW  HW  EP  OW  
HW  HW  EP  OW  HW  HW  EP  OW  HW  HW  EP  OW  HW  HW  EP  OW  HW  HW  EP  OW  
HW  HW  EP  OW  HW  HW  EP  OW  HW  HW  EP  OW  HW  HW  EP  OW  HW  HW  EP  OW  
HW  HW  EP  OW  HW  HW  EP  OW  HW  HW  EP  OW  HW  HW  EP  
%FLAG TREE_CHAIN_CLASSIFICATION                                                 
%FORMAT(20a4)                                                                   
M   M   M   M   M   M   M   M   M   M   BLA BLA BLA BLA BLA BLA BLA BLA BLA BLA 
BLA BLA BLA BLA BLA BLA BLA BLA BLA BLA BLA BLA BLA BLA BLA BLA BLA BLA BLA BLA 
BLA BLA BLA BLA BLA BLA BLA BLA BLA BLA BLA BLA BLA BLA BLA BLA BLA BLA BLA BLA 
BLA BLA BLA BLA BLA BLA BLA BLA BLA BLA BLA BLA BLA BLA BLA BLA BLA BLA BLA BLA 
BLA BLA BLA BLA BLA BLA BLA BLA BLA BLA BLA BLA BLA BLA BLA BLA BLA BLA BLA BLA 
BLA BLA BLA BLA BLA BLA BLA BLA BLA BLA BLA BLA BLA BLA BLA BLA BLA BLA BLA BLA 
BLA BLA BLA BLA BLA BLA BLA BLA BLA BLA BLA BLA BLA BLA BLA BLA BLA BLA BLA BLA 
BLA BLA BLA BLA BLA BLA BLA BLA BLA BLA BLA BLA BLA BLA BLA BLA BLA BLA BLA BLA 
BLA BLA BLA BLA BLA BLA BLA BLA BLA BLA BLA BLA BLA BLA BLA BLA BLA BLA BLA BLA 
BLA BLA BLA BLA BLA BLA BLA BLA BLA BLA BLA BLA BLA BLA BLA BLA BLA BLA BLA BLA 
BLA BLA BLA BLA BLA BLA BLA BLA BLA BLA BLA BLA BLA BLA BLA BLA BLA BLA BLA BLA 
BLA BLA BLA BLA BLA BLA BLA BLA BLA BLA BLA BLA BLA BLA BLA BLA BLA BLA BLA BLA 
BLA BLA BLA BLA BLA BLA BLA BLA BLA BLA BLA BLA BLA BLA BLA BLA BLA BLA BLA BLA 
BLA BLA BLA BLA BLA BLA BLA BLA BLA BLA BLA BLA BLA BLA BLA BLA BLA BLA BLA BLA 
BLA BLA BLA BLA BLA BLA BLA BLA BLA BLA BLA BLA BLA BLA BLA BLA BLA BLA BLA BLA 
BLA BLA BLA BLA BLA BLA BLA BLA BLA BLA BLA BLA BLA BLA BLA BLA BLA BLA BLA BLA 
BLA BLA BLA BLA BLA BLA BLA BLA BLA BLA BLA BLA BLA BLA BLA BLA BLA BLA BLA BLA 
BLA BLA BLA BLA BLA BLA BLA BLA BLA BLA BLA BLA BLA BLA BLA BLA BLA BLA BLA BLA 
BLA BLA BLA BLA BLA BLA BLA BLA BLA BLA BLA BLA BLA BLA BLA BLA BLA BLA BLA BLA 
BLA BLA BLA BLA BLA BLA BLA BLA BLA BLA BLA BLA BLA BLA BLA BLA BLA BLA BLA BLA 
BLA BLA BLA BLA BLA BLA BLA BLA BLA BLA BLA BLA BLA BLA BLA BLA BLA BLA BLA BLA 
BLA BLA BLA BLA BLA BLA BLA BLA BLA BLA BLA BLA BLA BLA BLA BLA BLA BLA BLA BLA 
BLA BLA BLA BLA BLA BLA BLA BLA BLA BLA BLA BLA BLA BLA BLA BLA BLA BLA BLA BLA 
BLA BLA BLA BLA BLA BLA BLA BLA BLA BLA BLA BLA BLA BLA BLA BLA BLA BLA BLA BLA 
BLA BLA BLA BLA BLA BLA BLA BLA BLA BLA BLA BLA BLA BLA BLA BLA BLA BLA BLA BLA 
BLA BLA BLA BLA BLA BLA BLA BLA BLA BLA BLA BLA BLA BLA BLA BLA BLA BLA BLA BLA 
BLA BLA BLA BLA BLA BLA BLA BLA BLA BLA BLA BLA BLA BLA BLA BLA BLA BLA BLA BLA 
BLA BLA BLA BLA BLA BLA BLA BLA BLA BLA BLA BLA BLA BLA BLA BLA BLA BLA BLA BLA 
BLA BLA BLA BLA BLA BLA BLA BLA BLA BLA BLA BLA BLA BLA BLA BLA BLA BLA BLA BLA 
BLA BLA BLA BLA BLA BLA BLA BLA BLA BLA BLA BLA BLA BLA BLA BLA BLA BLA BLA BLA 
BLA BLA BLA BLA BLA BLA BLA BLA BLA BLA BLA BLA BLA BLA BLA BLA BLA BLA BLA BLA 
BLA BLA BLA BLA BLA BLA BLA BLA BLA BLA BLA BLA BLA BLA BLA BLA BLA BLA BLA BLA 
BLA BLA BLA BLA BLA BLA BLA BLA BLA BLA BLA BLA BLA BLA BLA BLA BLA BLA BLA BLA 
BLA BLA BLA BLA BLA BLA BLA BLA BLA BLA BLA BLA BLA BLA BLA BLA BLA BLA BLA BLA 
BLA BLA BLA BLA BLA BLA BLA BLA BLA BLA BLA BLA BLA BLA BLA BLA BLA BLA BLA BLA 
BLA BLA BLA BLA BLA BLA BLA BLA BLA BLA BLA BLA BLA BLA BLA BLA BLA BLA BLA BLA 
BLA BLA BLA BLA BLA BLA BLA BLA BLA BLA BLA BLA BLA BLA BLA BLA BLA BLA BLA BLA 
BLA BLA BLA BLA BLA BLA BLA BLA BLA BLA BLA BLA BLA BLA BLA BLA BLA BLA BLA BLA 
BLA BLA BLA BLA BLA BLA BLA BLA BLA BLA BLA BLA BLA BLA BLA BLA BLA BLA BLA BLA 
BLA BLA BLA BLA BLA BLA BLA BLA BLA BLA BLA BLA BLA BLA BLA BLA BLA BLA BLA BLA 
BLA BLA BLA BLA BLA BLA BLA BLA BLA BLA BLA BLA BLA BLA BLA BLA BLA BLA BLA BLA 
BLA BLA BLA BLA BLA BLA BLA BLA BLA BLA BLA BLA BLA BLA BLA BLA BLA BLA BLA BLA 
BLA BLA BLA BLA BLA BLA BLA BLA BLA BLA BLA BLA BLA BLA BLA BLA BLA BLA BLA BLA 
BLA BLA BLA BLA BLA BLA BLA BLA BLA BLA BLA BLA BLA BLA BLA BLA BLA BLA BLA BLA 
BLA BLA BLA BLA BLA BLA BLA BLA BLA BLA BLA BLA BLA BLA BLA BLA BLA BLA BLA BLA 
BLA BLA BLA BLA BLA BLA BLA BLA BLA BLA BLA BLA BLA BLA BLA BLA BLA BLA BLA BLA 
BLA BLA BLA BLA BLA BLA BLA BLA BLA BLA BLA BLA BLA BLA BLA BLA BLA BLA BLA BLA 
BLA BLA BLA BLA BLA BLA BLA BLA BLA BLA BLA BLA BLA BLA BLA BLA BLA BLA BLA BLA 
BLA BLA BLA BLA BLA BLA BLA BLA BLA BLA BLA BLA BLA BLA BLA BLA BLA BLA BLA BLA 
BLA BLA BLA BLA BLA BLA BLA BLA BLA BLA BLA BLA BLA BLA BLA BLA BLA BLA BLA BLA 
BLA BLA BLA BLA BLA BLA BLA BLA BLA BLA BLA BLA BLA BLA BLA BLA BLA BLA BLA BLA 
BLA BLA BLA BLA BLA BLA BLA BLA BLA BLA BLA BLA BLA BLA BLA BLA BLA BLA BLA BLA 
BLA BLA BLA BLA BLA BLA BLA BLA BLA BLA BLA BLA BLA BLA BLA BLA BLA BLA BLA BLA 
BLA BLA BLA BLA BLA BLA BLA BLA BLA BLA BLA BLA BLA BLA BLA BLA BLA BLA BLA BLA 
BLA BLA BLA BLA BLA BLA BLA BLA BLA BLA BLA BLA BLA BLA BLA BLA BLA BLA BLA BLA 
BLA BLA BLA BLA BLA BLA BLA BLA BLA BLA BLA BLA BLA BLA BLA BLA BLA BLA BLA BLA 
BLA BLA BLA BLA BLA BLA BLA BLA BLA BLA BLA BLA BLA BLA BLA BLA BLA BLA BLA BLA 
BLA BLA BLA BLA BLA BLA BLA BLA BLA BLA BLA BLA BLA BLA BLA BLA BLA BLA BLA BLA 
BLA BLA BLA BLA BLA BLA BLA BLA BLA BLA BLA BLA BLA BLA BLA BLA BLA BLA BLA BLA 
BLA BLA BLA BLA BLA BLA BLA BLA BLA BLA BLA BLA BLA BLA BLA BLA BLA BLA BLA BLA 
BLA BLA BLA BLA BLA BLA BLA BLA BLA BLA BLA BLA BLA BLA BLA BLA BLA BLA BLA BLA 
BLA BLA BLA BLA BLA BLA BLA BLA BLA BLA BLA BLA BLA BLA BLA BLA BLA BLA BLA BLA 
BLA BLA BLA BLA BLA BLA BLA BLA BLA BLA BLA BLA BLA BLA BLA BLA BLA BLA BLA BLA 
BLA BLA BLA BLA BLA BLA BLA BLA BLA BLA BLA BLA BLA BLA BLA BLA BLA BLA BLA BLA 
BLA BLA BLA BLA BLA BLA BLA BLA BLA BLA BLA BLA BLA BLA BLA BLA BLA BLA BLA BLA 
BLA BLA BLA BLA BLA BLA BLA BLA BLA BLA BLA BLA BLA BLA BLA BLA BLA BLA BLA BLA 
BLA BLA BLA BLA BLA BLA BLA BLA BLA BLA BLA BLA BLA BLA BLA BLA BLA BLA BLA BLA 
BLA BLA BLA BLA BLA BLA BLA BLA BLA BLA BLA BLA BLA BLA BLA BLA BLA BLA BLA BLA 
BLA BLA BLA BLA BLA BLA BLA BLA BLA BLA BLA BLA BLA BLA BLA BLA BLA BLA BLA BLA 
BLA BLA BLA BLA BLA BLA BLA BLA BLA BLA BLA BLA BLA BLA BLA BLA BLA BLA BLA BLA 
BLA BLA BLA BLA BLA BLA BLA BLA BLA BLA BLA BLA BLA BLA BLA BLA BLA BLA BLA BLA 
BLA BLA BLA BLA BLA BLA BLA BLA BLA BLA BLA BLA BLA BLA BLA BLA BLA BLA BLA BLA 
BLA BLA BLA BLA BLA BLA BLA BLA BLA BLA BLA BLA BLA BLA BLA BLA BLA BLA BLA BLA 
BLA BLA BLA BLA BLA BLA BLA BLA BLA BLA BLA BLA BLA BLA BLA BLA BLA BLA BLA BLA 
BLA BLA BLA BLA BLA BLA BLA BLA BLA BLA BLA BLA BLA BLA BLA BLA BLA BLA BLA BLA 
BLA BLA BLA BLA BLA BLA BLA BLA BLA BLA BLA BLA BLA BLA BLA BLA BLA BLA BLA BLA 
BLA BLA BLA BLA BLA BLA BLA BLA BLA BLA BLA BLA BLA BLA BLA BLA BLA BLA BLA BLA 
BLA BLA BLA BLA BLA BLA BLA BLA BLA BLA BLA BLA BLA BLA BLA BLA BLA BLA BLA BLA 
BLA BLA BLA BLA BLA BLA BLA BLA BLA BLA BLA BLA BLA BLA BLA BLA BLA BLA BLA BLA 
BLA BLA BLA BLA BLA BLA BLA BLA BLA BLA BLA BLA BLA BLA BLA BLA BLA BLA BLA BLA 
BLA BLA BLA BLA BLA BLA BLA BLA BLA BLA BLA BLA BLA BLA BLA BLA BLA BLA BLA BLA 
BLA BLA BLA BLA BLA BLA BLA BLA BLA BLA BLA BLA BLA BLA BLA BLA BLA BLA BLA BLA 
BLA BLA BLA BLA BLA BLA BLA BLA BLA BLA BLA BLA BLA BLA BLA BLA BLA BLA BLA BLA 
BLA BLA BLA BLA BLA BLA BLA BLA BLA BLA BLA BLA BLA BLA BLA BLA BLA BLA BLA BLA 
BLA BLA BLA BLA BLA BLA BLA BLA BLA BLA BLA BLA BLA BLA BLA BLA BLA BLA BLA BLA 
BLA BLA BLA BLA BLA BLA BLA BLA BLA BLA BLA BLA BLA BLA BLA BLA BLA BLA BLA BLA 
BLA BLA BLA BLA BLA BLA BLA BLA BLA BLA BLA BLA BLA BLA BLA BLA BLA BLA BLA BLA 
BLA BLA BLA BLA BLA BLA BLA BLA BLA BLA BLA BLA BLA BLA BLA BLA BLA BLA BLA BLA 
BLA BLA BLA BLA BLA BLA BLA BLA BLA BLA BLA BLA BLA BLA BLA BLA BLA BLA BLA BLA 
BLA BLA BLA BLA BLA BLA BLA BLA BLA BLA BLA BLA BLA BLA BLA BLA BLA BLA BLA BLA 
BLA BLA BLA BLA BLA BLA BLA BLA BLA BLA BLA BLA BLA BLA BLA BLA BLA BLA BLA BLA 
BLA BLA BLA BLA BLA BLA BLA BLA BLA BLA BLA BLA BLA BLA BLA BLA BLA BLA BLA BLA 
BLA BLA BLA BLA BLA BLA BLA BLA BLA BLA BLA BLA BLA BLA BLA BLA BLA BLA BLA BLA 
BLA BLA BLA BLA BLA BLA BLA BLA BLA BLA BLA BLA BLA BLA BLA BLA BLA BLA BLA BLA 
BLA BLA BLA BLA BLA BLA BLA BLA BLA BLA BLA BLA BLA BLA BLA BLA BLA BLA BLA BLA 
BLA BLA BLA BLA BLA BLA BLA BLA BLA BLA BLA BLA BLA BLA BLA BLA BLA BLA BLA BLA 
BLA BLA BLA BLA BLA BLA BLA BLA BLA BLA BLA BLA BLA BLA BLA BLA BLA BLA BLA BLA 
BLA BLA BLA BLA BLA BLA BLA BLA BLA BLA BLA BLA BLA BLA BLA BLA BLA BLA BLA BLA 
BLA BLA BLA BLA BLA BLA BLA BLA BLA BLA BLA BLA BLA BLA BLA BLA BLA BLA BLA BLA 
BLA BLA BLA BLA BLA BLA BLA BLA BLA BLA BLA BLA BLA BLA BLA BLA BLA BLA BLA BLA 
BLA BLA BLA BLA BLA BLA BLA BLA BLA BLA BLA BLA BLA BLA BLA BLA BLA BLA BLA BLA 
BLA BLA BLA BLA BLA BLA BLA BLA BLA BLA BLA BLA BLA BLA BLA BLA BLA BLA BLA BLA 
BLA BLA BLA BLA BLA BLA BLA BLA BLA BLA BLA BLA BLA BLA BLA BLA BLA BLA BLA BLA 
BLA BLA BLA BLA BLA BLA BLA BLA BLA BLA BLA BLA BLA BLA BLA BLA BLA BLA BLA BLA 
BLA BLA BLA BLA BLA BLA BLA BLA BLA BLA BLA BLA BLA BLA BLA BLA BLA BLA BLA BLA 
BLA BLA BLA BLA BLA BLA BLA BLA BLA BLA BLA BLA BLA BLA BLA BLA BLA BLA BLA BLA 
BLA BLA BLA BLA BLA BLA BLA BLA BLA BLA BLA BLA BLA BLA BLA BLA BLA BLA BLA BLA 
BLA BLA BLA BLA BLA BLA BLA BLA BLA BLA BLA BLA BLA BLA BLA BLA BLA BLA BLA BLA 
BLA BLA BLA BLA BLA BLA BLA BLA BLA BLA BLA BLA BLA BLA BLA BLA BLA BLA BLA BLA 
BLA BLA BLA BLA BLA BLA BLA BLA BLA BLA BLA BLA BLA BLA BLA BLA BLA BLA BLA BLA 
BLA BLA BLA BLA BLA BLA BLA BLA BLA BLA BLA BLA BLA BLA BLA BLA BLA BLA BLA BLA 
BLA BLA BLA BLA BLA BLA BLA BLA BLA BLA BLA BLA BLA BLA BLA BLA BLA BLA BLA BLA 
BLA BLA BLA BLA BLA BLA BLA BLA BLA BLA BLA BLA BLA BLA BLA BLA BLA BLA BLA BLA 
BLA BLA BLA BLA BLA BLA BLA BLA BLA BLA BLA BLA BLA BLA BLA BLA BLA BLA BLA BLA 
BLA BLA BLA BLA BLA BLA BLA BLA BLA BLA BLA BLA BLA BLA BLA BLA BLA BLA BLA BLA 
BLA BLA BLA BLA BLA BLA BLA BLA BLA BLA BLA BLA BLA BLA BLA BLA BLA BLA BLA BLA 
BLA BLA BLA BLA BLA BLA BLA BLA BLA BLA BLA BLA BLA BLA BLA BLA BLA BLA BLA BLA 
BLA BLA BLA BLA BLA BLA BLA BLA BLA BLA BLA BLA BLA BLA BLA BLA BLA BLA BLA BLA 
BLA BLA BLA BLA BLA BLA BLA BLA BLA BLA BLA BLA BLA BLA BLA BLA BLA BLA BLA BLA 
BLA BLA BLA BLA BLA BLA BLA BLA BLA BLA BLA BLA BLA BLA BLA BLA BLA BLA BLA BLA 
BLA BLA BLA BLA BLA BLA BLA BLA BLA BLA BLA BLA BLA BLA BLA BLA BLA BLA BLA BLA 
BLA BLA BLA BLA BLA BLA BLA BLA BLA BLA BLA BLA BLA BLA BLA BLA BLA BLA BLA BLA 
BLA BLA BLA BLA BLA BLA BLA BLA BLA BLA BLA BLA BLA BLA BLA BLA BLA BLA BLA BLA 
BLA BLA BLA BLA BLA BLA BLA BLA BLA BLA BLA BLA BLA BLA BLA BLA BLA BLA BLA BLA 
BLA BLA BLA BLA BLA BLA BLA BLA BLA BLA BLA BLA BLA BLA BLA BLA BLA BLA BLA BLA 
BLA BLA BLA BLA BLA BLA BLA BLA BLA BLA BLA BLA BLA BLA BLA BLA BLA BLA BLA BLA 
BLA BLA BLA BLA BLA BLA BLA BLA BLA BLA BLA BLA BLA BLA BLA BLA BLA BLA BLA BLA 
BLA BLA BLA BLA BLA BLA BLA BLA BLA BLA BLA BLA BLA BLA BLA BLA BLA BLA BLA BLA 
BLA BLA BLA BLA BLA BLA BLA BLA BLA BLA BLA BLA BLA BLA BLA BLA BLA BLA BLA BLA 
BLA BLA BLA BLA BLA BLA BLA BLA BLA BLA BLA BLA BLA BLA BLA BLA BLA BLA BLA BLA 
BLA BLA BLA BLA BLA BLA BLA BLA BLA BLA BLA BLA BLA BLA BLA BLA BLA BLA BLA BLA 
BLA BLA BLA BLA BLA BLA BLA BLA BLA BLA BLA BLA BLA BLA BLA BLA BLA BLA BLA BLA 
BLA BLA BLA BLA BLA BLA BLA BLA BLA BLA BLA BLA BLA BLA BLA BLA BLA BLA BLA BLA 
BLA BLA BLA BLA BLA BLA BLA BLA BLA BLA BLA BLA BLA BLA BLA BLA BLA BLA BLA BLA 
BLA BLA BLA BLA BLA BLA BLA BLA BLA BLA BLA BLA BLA BLA BLA BLA BLA BLA BLA BLA 
BLA BLA BLA BLA BLA BLA BLA BLA BLA BLA BLA BLA BLA BLA BLA BLA BLA BLA BLA BLA 
BLA BLA BLA BLA BLA BLA BLA BLA BLA BLA BLA BLA BLA BLA BLA BLA BLA BLA BLA BLA 
BLA BLA BLA BLA BLA BLA BLA BLA BLA BLA BLA BLA BLA BLA BLA BLA BLA BLA BLA BLA 
BLA BLA BLA BLA BLA BLA BLA BLA BLA BLA BLA BLA BLA BLA BLA BLA BLA BLA BLA BLA 
BLA BLA BLA BLA BLA BLA BLA BLA BLA BLA BLA BLA BLA BLA BLA BLA BLA BLA BLA BLA 
BLA BLA BLA BLA BLA BLA BLA BLA BLA BLA BLA BLA BLA BLA BLA BLA BLA BLA BLA BLA 
BLA BLA BLA BLA BLA BLA BLA BLA BLA BLA BLA BLA BLA BLA BLA BLA BLA BLA BLA BLA 
BLA BLA BLA BLA BLA BLA BLA BLA BLA BLA BLA BLA BLA BLA BLA BLA BLA BLA BLA BLA 
BLA BLA BLA BLA BLA BLA BLA BLA BLA BLA BLA BLA BLA BLA BLA BLA BLA BLA BLA BLA 
BLA BLA BLA BLA BLA BLA BLA BLA BLA BLA BLA BLA BLA BLA BLA BLA BLA BLA BLA BLA 
BLA BLA BLA BLA BLA BLA BLA BLA BLA BLA BLA BLA BLA BLA BLA BLA BLA BLA BLA BLA 
BLA BLA BLA BLA BLA BLA BLA BLA BLA BLA BLA BLA BLA BLA BLA BLA BLA BLA BLA BLA 
BLA BLA BLA BLA BLA BLA BLA BLA BLA BLA BLA BLA BLA BLA BLA BLA BLA BLA BLA BLA 
BLA BLA BLA BLA BLA BLA BLA BLA BLA BLA BLA BLA BLA BLA BLA BLA BLA BLA BLA BLA 
BLA BLA BLA BLA BLA BLA BLA BLA BLA BLA BLA BLA BLA BLA BLA BLA BLA BLA BLA BLA 
BLA BLA BLA BLA BLA BLA BLA BLA BLA BLA BLA BLA BLA BLA BLA BLA BLA BLA BLA BLA 
BLA BLA BLA BLA BLA BLA BLA BLA BLA BLA BLA BLA BLA BLA BLA BLA BLA BLA BLA BLA 
BLA BLA BLA BLA BLA BLA BLA BLA BLA BLA BLA BLA BLA BLA BLA BLA BLA BLA BLA BLA 
BLA BLA BLA BLA BLA BLA BLA BLA BLA BLA BLA BLA BLA BLA BLA BLA BLA BLA BLA BLA 
BLA BLA BLA BLA BLA BLA BLA BLA BLA BLA BLA BLA BLA BLA BLA BLA BLA BLA BLA BLA 
BLA BLA BLA BLA BLA BLA BLA BLA BLA BLA BLA BLA BLA BLA BLA BLA BLA BLA BLA BLA 
BLA BLA BLA BLA BLA BLA BLA BLA BLA BLA BLA BLA BLA BLA BLA BLA BLA BLA BLA BLA 
BLA BLA BLA BLA BLA BLA BLA BLA BLA BLA BLA BLA BLA BLA BLA BLA BLA BLA BLA BLA 
BLA BLA BLA BLA BLA BLA BLA BLA BLA BLA BLA BLA BLA BLA BLA BLA BLA BLA BLA BLA 
BLA BLA BLA BLA BLA BLA BLA BLA BLA BLA BLA BLA BLA BLA BLA BLA BLA BLA BLA BLA 
BLA BLA BLA BLA BLA BLA BLA BLA BLA BLA BLA BLA BLA BLA BLA BLA BLA BLA BLA BLA 
BLA BLA BLA BLA BLA BLA BLA BLA BLA BLA BLA BLA BLA BLA BLA BLA BLA BLA BLA BLA 
BLA BLA BLA BLA BLA BLA BLA BLA BLA BLA BLA BLA BLA BLA BLA BLA BLA BLA BLA BLA 
BLA BLA BLA BLA BLA BLA BLA BLA BLA BLA BLA BLA BLA BLA BLA BLA BLA BLA BLA BLA 
BLA BLA BLA BLA BLA BLA BLA BLA BLA BLA BLA BLA BLA BLA BLA BLA BLA BLA BLA BLA 
BLA BLA BLA BLA BLA BLA BLA BLA BLA BLA BLA BLA BLA BLA BLA BLA BLA BLA BLA BLA 
BLA BLA BLA BLA BLA BLA BLA BLA BLA BLA BLA BLA BLA BLA BLA BLA BLA BLA BLA BLA 
BLA BLA BLA BLA BLA BLA BLA BLA BLA BLA BLA BLA BLA BLA BLA BLA BLA BLA BLA BLA 
BLA BLA BLA BLA BLA BLA BLA BLA BLA BLA BLA BLA BLA BLA BLA BLA BLA BLA BLA BLA 
BLA BLA BLA BLA BLA BLA BLA BLA BLA BLA BLA BLA BLA BLA BLA BLA BLA BLA BLA BLA 
BLA BLA BLA BLA BLA BLA BLA BLA BLA BLA BLA BLA BLA BLA BLA BLA BLA BLA BLA BLA 
BLA BLA BLA BLA BLA BLA BLA BLA BLA BLA BLA BLA BLA BLA BLA BLA BLA BLA BLA BLA 
BLA BLA BLA BLA BLA BLA BLA BLA BLA BLA BLA BLA BLA BLA BLA BLA BLA BLA BLA BLA 
BLA BLA BLA BLA BLA BLA BLA BLA BLA BLA BLA BLA BLA BLA BLA BLA BLA BLA BLA BLA 
BLA BLA BLA BLA BLA BLA BLA BLA BLA BLA BLA BLA BLA BLA BLA BLA BLA BLA BLA BLA 
BLA BLA BLA BLA BLA BLA BLA BLA BLA BLA BLA BLA BLA BLA BLA BLA BLA BLA BLA BLA 
BLA BLA BLA BLA BLA BLA BLA BLA BLA BLA BLA BLA BLA BLA BLA BLA BLA BLA BLA BLA 
BLA BLA BLA BLA BLA BLA BLA BLA BLA BLA BLA BLA BLA BLA BLA BLA BLA BLA BLA BLA 
BLA BLA BLA BLA BLA BLA BLA BLA BLA BLA BLA BLA BLA BLA BLA BLA BLA BLA BLA BLA 
BLA BLA BLA BLA BLA BLA BLA BLA BLA BLA BLA BLA BLA BLA BLA BLA BLA BLA BLA BLA 
BLA BLA BLA BLA BLA BLA BLA BLA BLA BLA BLA BLA BLA BLA BLA BLA BLA BLA BLA BLA 
BLA BLA BLA BLA BLA BLA BLA BLA BLA BLA BLA BLA BLA BLA BLA BLA BLA BLA BLA BLA 
BLA BLA BLA BLA BLA BLA BLA BLA BLA BLA BLA BLA BLA BLA BLA BLA BLA BLA BLA BLA 
BLA BLA BLA BLA BLA BLA BLA BLA BLA BLA BLA BLA BLA BLA BLA BLA BLA BLA BLA BLA 
BLA BLA BLA BLA BLA BLA BLA BLA BLA BLA BLA BLA BLA BLA BLA BLA BLA BLA BLA BLA 
BLA BLA BLA BLA BLA BLA BLA BLA BLA BLA BLA BLA BLA BLA BLA BLA BLA BLA BLA BLA 
BLA BLA BLA BLA BLA BLA BLA BLA BLA BLA BLA BLA BLA BLA BLA BLA BLA BLA BLA BLA 
BLA BLA BLA BLA BLA BLA BLA BLA BLA BLA BLA BLA BLA BLA BLA BLA BLA BLA BLA BLA 
BLA BLA BLA BLA BLA BLA BLA BLA BLA BLA BLA BLA BLA BLA BLA BLA BLA BLA BLA BLA 
BLA BLA BLA BLA BLA BLA BLA BLA BLA BLA BLA BLA BLA BLA BLA BLA BLA BLA BLA BLA 
BLA BLA BLA BLA BLA BLA BLA BLA BLA BLA BLA BLA BLA BLA BLA BLA BLA BLA BLA BLA 
BLA BLA BLA BLA BLA BLA BLA BLA BLA BLA BLA BLA BLA BLA BLA BLA BLA BLA BLA BLA 
BLA BLA BLA BLA BLA BLA BLA BLA BLA BLA BLA BLA BLA BLA BLA BLA BLA BLA BLA BLA 
BLA BLA BLA BLA BLA BLA BLA BLA BLA BLA BLA BLA BLA BLA BLA BLA BLA BLA BLA BLA 
BLA BLA BLA BLA BLA BLA BLA BLA BLA BLA BLA BLA BLA BLA BLA BLA BLA BLA BLA BLA 
BLA BLA BLA BLA BLA BLA BLA BLA BLA BLA BLA BLA BLA BLA BLA BLA BLA BLA BLA BLA 
BLA BLA BLA BLA BLA BLA BLA BLA BLA BLA BLA BLA BLA BLA BLA BLA BLA BLA BLA BLA 
BLA BLA BLA BLA BLA BLA BLA BLA BLA BLA BLA BLA BLA BLA BLA BLA BLA BLA BLA BLA 
BLA BLA BLA BLA BLA BLA BLA BLA BLA BLA BLA BLA BLA BLA BLA BLA BLA BLA BLA BLA 
BLA BLA BLA BLA BLA BLA BLA BLA BLA BLA BLA BLA BLA BLA BLA BLA BLA BLA BLA BLA 
BLA BLA BLA BLA BLA BLA BLA BLA BLA BLA BLA BLA BLA BLA BLA BLA BLA BLA BLA BLA 
BLA BLA BLA BLA BLA BLA BLA BLA BLA BLA BLA BLA BLA BLA BLA BLA BLA BLA BLA BLA 
BLA BLA BLA BLA BLA BLA BLA BLA BLA BLA BLA BLA BLA BLA BLA BLA BLA BLA BLA BLA 
BLA BLA BLA BLA BLA BLA BLA BLA BLA BLA BLA BLA BLA BLA BLA BLA BLA BLA BLA BLA 
BLA BLA BLA BLA BLA BLA BLA BLA BLA BLA BLA BLA BLA BLA BLA BLA BLA BLA BLA BLA 
BLA BLA BLA BLA BLA BLA BLA BLA BLA BLA BLA BLA BLA BLA BLA BLA BLA BLA BLA BLA 
BLA BLA BLA BLA BLA BLA BLA BLA BLA BLA BLA BLA BLA BLA BLA BLA BLA BLA BLA BLA 
BLA BLA BLA BLA BLA BLA BLA BLA BLA BLA BLA BLA BLA BLA BLA BLA BLA BLA BLA BLA 
BLA BLA BLA BLA BLA BLA BLA BLA BLA BLA BLA BLA BLA BLA BLA BLA BLA BLA BLA BLA 
BLA BLA BLA BLA BLA BLA BLA BLA BLA BLA BLA BLA BLA BLA BLA BLA BLA BLA BLA BLA 
BLA BLA BLA BLA BLA BLA BLA BLA BLA BLA BLA BLA BLA BLA BLA BLA BLA BLA BLA BLA 
BLA BLA BLA BLA BLA BLA BLA BLA BLA BLA BLA BLA BLA BLA BLA BLA BLA BLA BLA BLA 
BLA BLA BLA BLA BLA BLA BLA BLA BLA BLA BLA BLA BLA BLA BLA BLA BLA BLA BLA BLA 
BLA BLA BLA BLA BLA BLA BLA BLA BLA BLA BLA BLA BLA BLA BLA BLA BLA BLA BLA BLA 
BLA BLA BLA BLA BLA BLA BLA BLA BLA BLA BLA BLA BLA BLA BLA BLA BLA BLA BLA BLA 
BLA BLA BLA BLA BLA BLA BLA BLA BLA BLA BLA BLA BLA BLA BLA BLA BLA BLA BLA BLA 
BLA BLA BLA BLA BLA BLA BLA BLA BLA BLA BLA BLA BLA BLA BLA BLA BLA BLA BLA BLA 
BLA BLA BLA BLA BLA BLA BLA BLA BLA BLA BLA BLA BLA BLA BLA BLA BLA BLA BLA BLA 
BLA BLA BLA BLA BLA BLA BLA BLA BLA BLA BLA BLA BLA BLA BLA BLA BLA BLA BLA BLA 
BLA BLA BLA BLA BLA BLA BLA BLA BLA BLA BLA BLA BLA BLA BLA BLA BLA BLA BLA BLA 
BLA BLA BLA BLA BLA BLA BLA BLA BLA BLA BLA BLA BLA BLA BLA BLA BLA BLA BLA BLA 
BLA BLA BLA BLA BLA BLA BLA BLA BLA BLA BLA BLA BLA BLA BLA BLA BLA BLA BLA BLA 
BLA BLA BLA BLA BLA BLA BLA BLA BLA BLA BLA BLA BLA BLA BLA BLA BLA BLA BLA BLA 
BLA BLA BLA BLA BLA BLA BLA BLA BLA BLA BLA BLA BLA BLA BLA BLA BLA BLA BLA BLA 
BLA BLA BLA BLA BLA BLA BLA BLA BLA BLA BLA BLA BLA BLA BLA BLA BLA BLA BLA BLA 
BLA BLA BLA BLA BLA BLA BLA BLA BLA BLA BLA BLA BLA BLA BLA BLA BLA BLA BLA BLA 
BLA BLA BLA BLA BLA BLA BLA BLA BLA BLA BLA BLA BLA BLA BLA BLA BLA BLA BLA BLA 
BLA BLA BLA BLA BLA BLA BLA BLA BLA BLA BLA BLA BLA BLA BLA BLA BLA BLA BLA BLA 
BLA BLA BLA BLA BLA BLA BLA BLA BLA BLA BLA BLA BLA BLA BLA BLA BLA BLA BLA BLA 
BLA BLA BLA BLA BLA BLA BLA BLA BLA BLA BLA BLA BLA BLA BLA BLA BLA BLA BLA BLA 
BLA BLA BLA BLA BLA BLA BLA BLA BLA BLA BLA BLA BLA BLA BLA BLA BLA BLA BLA BLA 
BLA BLA BLA BLA BLA BLA BLA BLA BLA BLA BLA BLA BLA BLA BLA BLA BLA BLA BLA BLA 
BLA BLA BLA BLA BLA BLA BLA BLA BLA BLA BLA BLA BLA BLA BLA BLA BLA BLA BLA BLA 
BLA BLA BLA BLA BLA BLA BLA BLA BLA BLA BLA BLA BLA BLA BLA BLA BLA BLA BLA BLA 
BLA BLA BLA BLA BLA BLA BLA BLA BLA BLA BLA BLA BLA BLA BLA BLA BLA BLA BLA BLA 
BLA BLA BLA BLA BLA BLA BLA BLA BLA BLA BLA BLA BLA BLA BLA BLA BLA BLA BLA BLA 
BLA BLA BLA BLA BLA BLA BLA BLA BLA BLA BLA BLA BLA BLA BLA BLA BLA BLA BLA BLA 
BLA BLA BLA BLA BLA BLA BLA BLA BLA BLA BLA BLA BLA BLA BLA BLA BLA BLA BLA BLA 
BLA BLA BLA BLA BLA BLA BLA BLA BLA BLA BLA BLA BLA BLA BLA BLA BLA BLA BLA BLA 
BLA BLA BLA BLA BLA BLA BLA BLA BLA BLA BLA BLA BLA BLA BLA BLA BLA BLA BLA BLA 
BLA BLA BLA BLA BLA BLA BLA BLA BLA BLA BLA BLA BLA BLA BLA BLA BLA BLA BLA BLA 
BLA BLA BLA BLA BLA BLA BLA BLA BLA BLA BLA BLA BLA BLA BLA BLA BLA BLA BLA BLA 
BLA BLA BLA BLA BLA BLA BLA BLA BLA BLA BLA BLA BLA BLA BLA BLA BLA BLA BLA BLA 
BLA BLA BLA BLA BLA BLA BLA BLA BLA BLA BLA BLA BLA BLA BLA BLA BLA BLA BLA BLA 
BLA BLA BLA BLA BLA BLA BLA BLA BLA BLA BLA BLA BLA BLA BLA BLA BLA BLA BLA BLA 
BLA BLA BLA BLA BLA BLA BLA BLA BLA BLA BLA BLA BLA BLA BLA BLA BLA BLA BLA BLA 
BLA BLA BLA BLA BLA BLA BLA BLA BLA BLA BLA BLA BLA BLA BLA BLA BLA BLA BLA BLA 
BLA BLA BLA BLA BLA BLA BLA BLA BLA BLA BLA BLA BLA BLA BLA BLA BLA BLA BLA BLA 
BLA BLA BLA BLA BLA BLA BLA BLA BLA BLA BLA BLA BLA BLA BLA BLA BLA BLA BLA BLA 
BLA BLA BLA BLA BLA BLA BLA BLA BLA BLA BLA BLA BLA BLA BLA BLA BLA BLA BLA BLA 
BLA BLA BLA BLA BLA BLA BLA BLA BLA BLA BLA BLA BLA BLA BLA BLA BLA BLA BLA BLA 
BLA BLA BLA BLA BLA BLA BLA BLA BLA BLA BLA BLA BLA BLA BLA BLA BLA BLA BLA BLA 
BLA BLA BLA BLA BLA BLA BLA BLA BLA BLA BLA BLA BLA BLA BLA BLA BLA BLA BLA BLA 
BLA BLA BLA BLA BLA BLA BLA BLA BLA BLA BLA BLA BLA BLA BLA BLA BLA BLA BLA BLA 
BLA BLA BLA BLA BLA BLA BLA BLA BLA BLA BLA BLA BLA BLA BLA BLA BLA BLA BLA BLA 
BLA BLA BLA BLA BLA BLA BLA BLA BLA BLA BLA BLA BLA BLA BLA BLA BLA BLA BLA BLA 
BLA BLA BLA BLA BLA BLA BLA BLA BLA BLA BLA BLA BLA BLA BLA BLA BLA BLA BLA BLA 
BLA BLA BLA BLA BLA BLA BLA BLA BLA BLA BLA BLA BLA BLA BLA BLA BLA BLA BLA BLA 
BLA BLA BLA BLA BLA BLA BLA BLA BLA BLA BLA BLA BLA BLA BLA BLA BLA BLA BLA BLA 
BLA BLA BLA BLA BLA BLA BLA BLA BLA BLA BLA BLA BLA BLA BLA BLA BLA BLA BLA BLA 
BLA BLA BLA BLA BLA BLA BLA BLA BLA BLA BLA BLA BLA BLA BLA BLA BLA BLA BLA BLA 
BLA BLA BLA BLA BLA BLA BLA BLA BLA BLA BLA BLA BLA BLA BLA BLA BLA BLA BLA BLA 
BLA BLA BLA BLA BLA BLA BLA BLA BLA BLA BLA BLA BLA BLA BLA BLA BLA BLA BLA BLA 
BLA BLA BLA BLA BLA BLA BLA BLA BLA BLA BLA BLA BLA BLA BLA BLA BLA BLA BLA BLA 
BLA BLA BLA BLA BLA BLA BLA BLA BLA BLA BLA BLA BLA BLA BLA BLA BLA BLA BLA BLA 
BLA BLA BLA BLA BLA BLA BLA BLA BLA BLA BLA BLA BLA BLA BLA BLA BLA BLA BLA BLA 
BLA BLA BLA BLA BLA BLA BLA BLA BLA BLA BLA BLA BLA BLA BLA BLA BLA BLA BLA BLA 
BLA BLA BLA BLA BLA BLA BLA BLA BLA BLA BLA BLA BLA BLA BLA BLA BLA BLA BLA BLA 
BLA BLA BLA BLA BLA BLA BLA BLA BLA BLA BLA BLA BLA BLA BLA BLA BLA BLA BLA BLA 
BLA BLA BLA BLA BLA BLA BLA BLA BLA BLA BLA BLA BLA BLA BLA BLA BLA BLA BLA BLA 
BLA BLA BLA BLA BLA BLA BLA BLA BLA BLA BLA BLA BLA BLA BLA BLA BLA BLA BLA BLA 
BLA BLA BLA BLA BLA BLA BLA BLA BLA BLA BLA BLA BLA BLA BLA BLA BLA BLA BLA BLA 
BLA BLA BLA BLA BLA BLA BLA BLA BLA BLA BLA BLA BLA BLA BLA BLA BLA BLA BLA BLA 
BLA BLA BLA BLA BLA BLA BLA BLA BLA BLA BLA BLA BLA BLA BLA BLA BLA BLA BLA BLA 
BLA BLA BLA BLA BLA BLA BLA BLA BLA BLA BLA BLA BLA BLA BLA BLA BLA BLA BLA BLA 
BLA BLA BLA BLA BLA BLA BLA BLA BLA BLA BLA BLA BLA BLA BLA BLA BLA BLA BLA BLA 
BLA BLA BLA BLA BLA BLA BLA BLA BLA BLA BLA BLA BLA BLA BLA BLA BLA BLA BLA BLA 
BLA BLA BLA BLA BLA BLA BLA BLA BLA BLA BLA BLA BLA BLA BLA BLA BLA BLA BLA BLA 
BLA BLA BLA BLA BLA BLA BLA BLA BLA BLA BLA BLA BLA BLA BLA BLA BLA BLA BLA BLA 
BLA BLA BLA BLA BLA BLA BLA BLA BLA BLA BLA BLA BLA BLA BLA BLA BLA BLA BLA BLA 
BLA BLA BLA BLA BLA BLA BLA BLA BLA BLA BLA BLA BLA BLA BLA BLA BLA BLA BLA BLA 
BLA BLA BLA BLA BLA BLA BLA BLA BLA BLA BLA BLA BLA BLA BLA BLA BLA BLA BLA BLA 
BLA BLA BLA BLA BLA BLA BLA BLA BLA BLA BLA BLA BLA BLA BLA BLA BLA BLA BLA BLA 
BLA BLA BLA BLA BLA BLA BLA BLA BLA BLA BLA BLA BLA BLA BLA BLA BLA BLA BLA BLA 
BLA BLA BLA BLA BLA BLA BLA BLA BLA BLA BLA BLA BLA BLA BLA BLA BLA BLA BLA BLA 
BLA BLA BLA BLA BLA BLA BLA BLA BLA BLA BLA BLA BLA BLA BLA BLA BLA BLA BLA BLA 
BLA BLA BLA BLA BLA BLA BLA BLA BLA BLA BLA BLA BLA BLA BLA BLA BLA BLA BLA BLA 
BLA BLA BLA BLA BLA BLA BLA BLA BLA BLA BLA BLA BLA BLA BLA BLA BLA BLA BLA BLA 
BLA BLA BLA BLA BLA BLA BLA BLA BLA BLA BLA BLA BLA BLA BLA BLA BLA BLA BLA BLA 
BLA BLA BLA BLA BLA BLA BLA BLA BLA BLA BLA BLA BLA BLA BLA BLA BLA BLA BLA BLA 
BLA BLA BLA BLA BLA BLA BLA BLA BLA BLA BLA BLA BLA BLA BLA BLA BLA BLA BLA BLA 
BLA BLA BLA BLA BLA BLA BLA BLA BLA BLA BLA BLA BLA BLA BLA BLA BLA BLA BLA BLA 
BLA BLA BLA BLA BLA BLA BLA BLA BLA BLA BLA BLA BLA BLA BLA BLA BLA BLA BLA BLA 
BLA BLA BLA BLA BLA BLA BLA BLA BLA BLA BLA BLA BLA BLA BLA BLA BLA BLA BLA BLA 
BLA BLA BLA BLA BLA BLA BLA BLA BLA BLA BLA BLA BLA BLA BLA BLA BLA BLA BLA BLA 
BLA BLA BLA BLA BLA BLA BLA BLA BLA BLA BLA BLA BLA BLA BLA BLA BLA BLA BLA BLA 
BLA BLA BLA BLA BLA BLA BLA BLA BLA BLA BLA BLA BLA BLA BLA BLA BLA BLA BLA BLA 
BLA BLA BLA BLA BLA BLA BLA BLA BLA BLA BLA BLA BLA BLA BLA BLA BLA BLA BLA BLA 
BLA BLA BLA BLA BLA BLA BLA BLA BLA BLA BLA BLA BLA BLA BLA BLA BLA BLA BLA BLA 
BLA BLA BLA BLA BLA BLA BLA BLA BLA BLA BLA BLA BLA BLA BLA BLA BLA BLA BLA BLA 
BLA BLA BLA BLA BLA BLA BLA BLA BLA BLA BLA BLA BLA BLA BLA BLA BLA BLA BLA BLA 
BLA BLA BLA BLA BLA BLA BLA BLA BLA BLA BLA BLA BLA BLA BLA BLA BLA BLA BLA BLA 
BLA BLA BLA BLA BLA BLA BLA BLA BLA BLA BLA BLA BLA BLA BLA BLA BLA BLA BLA BLA 
BLA BLA BLA BLA BLA BLA BLA BLA BLA BLA BLA BLA BLA BLA BLA BLA BLA BLA BLA BLA 
BLA BLA BLA BLA BLA BLA BLA BLA BLA BLA BLA BLA BLA BLA BLA BLA BLA BLA BLA BLA 
BLA BLA BLA BLA BLA BLA BLA BLA BLA BLA BLA BLA BLA BLA BLA BLA BLA BLA BLA BLA 
BLA BLA BLA BLA BLA BLA BLA BLA BLA BLA BLA BLA BLA BLA BLA BLA BLA BLA BLA BLA 
BLA BLA BLA BLA BLA BLA BLA BLA BLA BLA BLA BLA BLA BLA BLA BLA BLA BLA BLA BLA 
BLA BLA BLA BLA BLA BLA BLA BLA BLA BLA BLA BLA BLA BLA BLA BLA BLA BLA BLA BLA 
BLA BLA BLA BLA BLA BLA BLA BLA BLA BLA BLA BLA BLA BLA BLA BLA BLA BLA BLA BLA 
BLA BLA BLA BLA BLA BLA BLA BLA BLA BLA BLA BLA BLA BLA BLA BLA BLA BLA BLA BLA 
BLA BLA BLA BLA BLA BLA BLA BLA BLA BLA BLA BLA BLA BLA BLA BLA BLA BLA BLA BLA 
BLA BLA BLA BLA BLA BLA BLA BLA BLA BLA BLA BLA BLA BLA BLA BLA BLA BLA BLA BLA 
BLA BLA BLA BLA BLA BLA BLA BLA BLA BLA BLA BLA BLA BLA BLA BLA BLA BLA BLA BLA 
BLA BLA BLA BLA BLA BLA BLA BLA BLA BLA BLA BLA BLA BLA BLA BLA BLA BLA BLA BLA 
BLA BLA BLA BLA BLA BLA BLA BLA BLA BLA BLA BLA BLA BLA BLA BLA BLA BLA BLA BLA 
BLA BLA BLA BLA BLA BLA BLA BLA BLA BLA BLA BLA BLA BLA BLA BLA BLA BLA BLA BLA 
BLA BLA BLA BLA BLA BLA BLA BLA BLA BLA BLA BLA BLA BLA BLA BLA BLA BLA BLA BLA 
BLA BLA BLA BLA BLA BLA BLA BLA BLA BLA BLA BLA BLA BLA BLA BLA BLA BLA BLA BLA 
BLA BLA BLA BLA BLA BLA BLA BLA BLA BLA BLA BLA BLA BLA BLA BLA BLA BLA BLA BLA 
BLA BLA BLA BLA BLA BLA BLA BLA BLA BLA BLA BLA BLA BLA BLA BLA BLA BLA BLA BLA 
BLA BLA BLA BLA BLA BLA BLA BLA BLA BLA BLA BLA BLA BLA BLA BLA BLA BLA BLA BLA 
BLA BLA BLA BLA BLA BLA BLA BLA BLA BLA BLA BLA BLA BLA BLA BLA BLA BLA BLA BLA 
BLA BLA BLA BLA BLA BLA BLA BLA BLA BLA BLA BLA BLA BLA BLA BLA BLA BLA BLA BLA 
BLA BLA BLA BLA BLA BLA BLA BLA BLA BLA BLA BLA BLA BLA BLA BLA BLA BLA BLA BLA 
BLA BLA BLA BLA BLA BLA BLA BLA BLA BLA BLA BLA BLA BLA BLA BLA BLA BLA BLA BLA 
BLA BLA BLA BLA BLA BLA BLA BLA BLA BLA BLA BLA BLA BLA BLA BLA BLA BLA BLA BLA 
BLA BLA BLA BLA BLA BLA BLA BLA BLA BLA BLA BLA BLA BLA BLA BLA BLA BLA BLA BLA 
BLA BLA BLA BLA BLA BLA BLA BLA BLA BLA BLA BLA BLA BLA BLA BLA BLA BLA BLA BLA 
BLA BLA BLA BLA BLA BLA BLA BLA BLA BLA BLA BLA BLA BLA BLA BLA BLA BLA BLA BLA 
BLA BLA BLA BLA BLA BLA BLA BLA BLA BLA BLA BLA BLA BLA BLA BLA BLA BLA BLA BLA 
BLA BLA BLA BLA BLA BLA BLA BLA BLA BLA BLA BLA BLA BLA BLA BLA BLA BLA BLA BLA 
BLA BLA BLA BLA BLA BLA BLA BLA BLA BLA BLA BLA BLA BLA BLA BLA BLA BLA BLA BLA 
BLA BLA BLA BLA BLA BLA BLA BLA BLA BLA BLA BLA BLA BLA BLA BLA BLA BLA BLA BLA 
BLA BLA BLA BLA BLA BLA BLA BLA BLA BLA BLA BLA BLA BLA BLA BLA BLA BLA BLA BLA 
BLA BLA BLA BLA BLA BLA BLA BLA BLA BLA BLA BLA BLA BLA BLA BLA BLA BLA BLA BLA 
BLA BLA BLA BLA BLA BLA BLA BLA BLA BLA BLA BLA BLA BLA BLA BLA BLA BLA BLA BLA 
BLA BLA BLA BLA BLA BLA BLA BLA BLA BLA BLA BLA BLA BLA BLA BLA BLA BLA BLA BLA 
BLA BLA BLA BLA BLA BLA BLA BLA BLA BLA BLA BLA BLA BLA BLA BLA BLA BLA BLA BLA 
BLA BLA BLA BLA BLA BLA BLA BLA BLA BLA BLA BLA BLA BLA BLA BLA BLA BLA BLA BLA 
BLA BLA BLA BLA BLA BLA BLA BLA BLA BLA BLA BLA BLA BLA BLA BLA BLA BLA BLA BLA 
BLA BLA BLA BLA BLA BLA BLA BLA BLA BLA BLA BLA BLA BLA BLA BLA BLA BLA BLA BLA 
BLA BLA BLA BLA BLA BLA BLA BLA BLA BLA BLA BLA BLA BLA BLA BLA BLA BLA BLA BLA 
BLA BLA BLA BLA BLA BLA BLA BLA BLA BLA BLA BLA BLA BLA BLA BLA BLA BLA BLA BLA 
BLA BLA BLA BLA BLA BLA BLA BLA BLA BLA BLA BLA BLA BLA BLA BLA BLA BLA BLA BLA 
BLA BLA BLA BLA BLA BLA BLA BLA BLA BLA BLA BLA BLA BLA BLA BLA BLA BLA BLA BLA 
BLA BLA BLA BLA BLA BLA BLA BLA BLA BLA BLA BLA BLA BLA BLA BLA BLA BLA BLA BLA 
BLA BLA BLA BLA BLA BLA BLA BLA BLA BLA BLA BLA BLA BLA BLA BLA BLA BLA BLA BLA 
BLA BLA BLA BLA BLA BLA BLA BLA BLA BLA BLA BLA BLA BLA BLA BLA BLA BLA BLA BLA 
BLA BLA BLA BLA BLA BLA BLA BLA BLA BLA BLA BLA BLA BLA BLA BLA BLA BLA BLA BLA 
BLA BLA BLA BLA BLA BLA BLA BLA BLA BLA BLA BLA BLA BLA BLA BLA BLA BLA BLA BLA 
BLA BLA BLA BLA BLA BLA BLA BLA BLA BLA BLA BLA BLA BLA BLA BLA BLA BLA BLA BLA 
BLA BLA BLA BLA BLA BLA BLA BLA BLA BLA BLA BLA BLA BLA BLA BLA BLA BLA BLA BLA 
BLA BLA BLA BLA BLA BLA BLA BLA BLA BLA BLA BLA BLA BLA BLA BLA BLA BLA BLA BLA 
BLA BLA BLA BLA BLA BLA BLA BLA BLA BLA BLA BLA BLA BLA BLA BLA BLA BLA BLA BLA 
BLA BLA BLA BLA BLA BLA BLA BLA BLA BLA BLA BLA BLA BLA BLA BLA BLA BLA BLA BLA 
BLA BLA BLA BLA BLA BLA BLA BLA BLA BLA BLA BLA BLA BLA BLA BLA BLA BLA BLA BLA 
BLA BLA BLA BLA BLA BLA BLA BLA BLA BLA BLA BLA BLA BLA BLA BLA BLA BLA BLA BLA 
BLA BLA BLA BLA BLA BLA BLA BLA BLA BLA BLA BLA BLA BLA BLA BLA BLA BLA BLA BLA 
BLA BLA BLA BLA BLA BLA BLA BLA BLA BLA BLA BLA BLA BLA BLA BLA BLA BLA BLA BLA 
BLA BLA BLA BLA BLA BLA BLA BLA BLA BLA BLA BLA BLA BLA BLA BLA BLA BLA BLA BLA 
BLA BLA BLA BLA BLA BLA BLA BLA BLA BLA BLA BLA BLA BLA BLA BLA BLA BLA BLA BLA 
BLA BLA BLA BLA BLA BLA BLA BLA BLA BLA BLA BLA BLA BLA BLA BLA BLA BLA BLA BLA 
BLA BLA BLA BLA BLA BLA BLA BLA BLA BLA BLA BLA BLA BLA BLA BLA BLA BLA BLA BLA 
BLA BLA BLA BLA BLA BLA BLA BLA BLA BLA BLA BLA BLA BLA BLA BLA BLA BLA BLA BLA 
BLA BLA BLA BLA BLA BLA BLA BLA BLA BLA BLA BLA BLA BLA BLA BLA BLA BLA BLA BLA 
BLA BLA BLA BLA BLA BLA BLA BLA BLA BLA BLA BLA BLA BLA BLA BLA BLA BLA BLA BLA 
BLA BLA BLA BLA BLA BLA BLA BLA BLA BLA BLA BLA BLA BLA BLA BLA BLA BLA BLA BLA 
BLA BLA BLA BLA BLA BLA BLA BLA BLA BLA BLA BLA BLA BLA BLA BLA BLA BLA BLA BLA 
BLA BLA BLA BLA BLA BLA BLA BLA BLA BLA BLA BLA BLA BLA BLA BLA BLA BLA BLA BLA 
BLA BLA BLA BLA BLA BLA BLA BLA BLA BLA BLA BLA BLA BLA BLA BLA BLA BLA BLA BLA 
BLA BLA BLA BLA BLA BLA BLA BLA BLA BLA BLA BLA BLA BLA BLA BLA BLA BLA BLA BLA 
BLA BLA BLA BLA BLA BLA BLA BLA BLA BLA BLA BLA BLA BLA BLA BLA BLA BLA BLA BLA 
BLA BLA BLA BLA BLA BLA BLA BLA BLA BLA BLA BLA BLA BLA BLA BLA BLA BLA BLA BLA 
BLA BLA BLA BLA BLA BLA BLA BLA BLA BLA BLA BLA BLA BLA BLA BLA BLA BLA BLA BLA 
BLA BLA BLA BLA BLA BLA BLA BLA BLA BLA BLA BLA BLA BLA BLA BLA BLA BLA BLA BLA 
BLA BLA BLA BLA BLA BLA BLA BLA BLA BLA BLA BLA BLA BLA BLA BLA BLA BLA BLA BLA 
BLA BLA BLA BLA BLA BLA BLA BLA BLA BLA BLA BLA BLA BLA BLA BLA BLA BLA BLA BLA 
BLA BLA BLA BLA BLA BLA BLA BLA BLA BLA BLA BLA BLA BLA BLA BLA BLA BLA BLA BLA 
BLA BLA BLA BLA BLA BLA BLA BLA BLA BLA BLA BLA BLA BLA BLA BLA BLA BLA BLA BLA 
BLA BLA BLA BLA BLA BLA BLA BLA BLA BLA BLA BLA BLA BLA BLA BLA BLA BLA BLA BLA 
BLA BLA BLA BLA BLA BLA BLA BLA BLA BLA BLA BLA BLA BLA BLA BLA BLA BLA BLA BLA 
BLA BLA BLA BLA BLA BLA BLA BLA BLA BLA BLA BLA BLA BLA BLA BLA BLA BLA BLA BLA 
BLA BLA BLA BLA BLA BLA BLA BLA BLA BLA BLA BLA BLA BLA BLA BLA BLA BLA BLA BLA 
BLA BLA BLA BLA BLA BLA BLA BLA BLA BLA BLA BLA BLA BLA BLA BLA BLA BLA BLA BLA 
BLA BLA BLA BLA BLA BLA BLA BLA BLA BLA BLA BLA BLA BLA BLA BLA BLA BLA BLA BLA 
BLA BLA BLA BLA BLA BLA BLA BLA BLA BLA BLA BLA BLA BLA BLA BLA BLA BLA BLA BLA 
BLA BLA BLA BLA BLA BLA BLA BLA BLA BLA BLA BLA BLA BLA BLA BLA BLA BLA BLA BLA 
BLA BLA BLA BLA BLA BLA BLA BLA BLA BLA BLA BLA BLA BLA BLA BLA BLA BLA BLA BLA 
BLA BLA BLA BLA BLA BLA BLA BLA BLA BLA BLA BLA BLA BLA BLA BLA BLA BLA BLA BLA 
BLA BLA BLA BLA BLA BLA BLA BLA BLA BLA BLA BLA BLA BLA BLA BLA BLA BLA BLA BLA 
BLA BLA BLA BLA BLA BLA BLA BLA BLA BLA BLA BLA BLA BLA BLA BLA BLA BLA BLA BLA 
BLA BLA BLA BLA BLA BLA BLA BLA BLA BLA BLA BLA BLA BLA BLA BLA BLA BLA BLA BLA 
BLA BLA BLA BLA BLA BLA BLA BLA BLA BLA BLA BLA BLA BLA BLA BLA BLA BLA BLA BLA 
BLA BLA BLA BLA BLA BLA BLA BLA BLA BLA BLA BLA BLA BLA BLA BLA BLA BLA BLA BLA 
BLA BLA BLA BLA BLA BLA BLA BLA BLA BLA BLA BLA BLA BLA BLA BLA BLA BLA BLA BLA 
BLA BLA BLA BLA BLA BLA BLA BLA BLA BLA BLA BLA BLA BLA BLA BLA BLA BLA BLA BLA 
BLA BLA BLA BLA BLA BLA BLA BLA BLA BLA BLA BLA BLA BLA BLA BLA BLA BLA BLA BLA 
BLA BLA BLA BLA BLA BLA BLA BLA BLA BLA BLA BLA BLA BLA BLA BLA BLA BLA BLA BLA 
BLA BLA BLA BLA BLA BLA BLA BLA BLA BLA BLA BLA BLA BLA BLA BLA BLA BLA BLA BLA 
BLA BLA BLA BLA BLA BLA BLA BLA BLA BLA BLA BLA BLA BLA BLA BLA BLA BLA BLA BLA 
BLA BLA BLA BLA BLA BLA BLA BLA BLA BLA BLA BLA BLA BLA BLA BLA BLA BLA BLA BLA 
BLA BLA BLA BLA BLA BLA BLA BLA BLA BLA BLA BLA BLA BLA BLA BLA BLA BLA BLA BLA 
BLA BLA BLA BLA BLA BLA BLA BLA BLA BLA BLA BLA BLA BLA BLA BLA BLA BLA BLA BLA 
BLA BLA BLA BLA BLA BLA BLA BLA BLA BLA BLA BLA BLA BLA BLA BLA BLA BLA BLA BLA 
BLA BLA BLA BLA BLA BLA BLA BLA BLA BLA BLA BLA BLA BLA BLA BLA BLA BLA BLA BLA 
BLA BLA BLA BLA BLA BLA BLA BLA BLA BLA BLA BLA BLA BLA BLA BLA BLA BLA BLA BLA 
BLA BLA BLA BLA BLA BLA BLA BLA BLA BLA BLA BLA BLA BLA BLA BLA BLA BLA BLA BLA 
BLA BLA BLA BLA BLA BLA BLA BLA BLA BLA BLA BLA BLA BLA BLA BLA BLA BLA BLA BLA 
BLA BLA BLA BLA BLA BLA BLA BLA BLA BLA BLA BLA BLA BLA BLA BLA BLA BLA BLA BLA 
BLA BLA BLA BLA BLA BLA BLA BLA BLA BLA BLA BLA BLA BLA BLA BLA BLA BLA BLA BLA 
BLA BLA BLA BLA BLA BLA BLA BLA BLA BLA BLA BLA BLA BLA BLA BLA BLA BLA BLA BLA 
BLA BLA BLA BLA BLA BLA BLA BLA BLA BLA BLA BLA BLA BLA BLA BLA BLA BLA BLA BLA 
BLA BLA BLA BLA BLA BLA BLA BLA BLA BLA BLA BLA BLA BLA BLA BLA BLA BLA BLA BLA 
BLA BLA BLA BLA BLA BLA BLA BLA BLA BLA BLA BLA BLA BLA BLA BLA BLA BLA BLA BLA 
BLA BLA BLA BLA BLA BLA BLA BLA BLA BLA BLA BLA BLA BLA BLA BLA BLA BLA BLA BLA 
BLA BLA BLA BLA BLA BLA BLA BLA BLA BLA BLA BLA BLA BLA BLA BLA BLA BLA BLA BLA 
BLA BLA BLA BLA BLA BLA BLA BLA BLA BLA BLA BLA BLA BLA BLA BLA BLA BLA BLA BLA 
BLA BLA BLA BLA BLA BLA BLA BLA BLA BLA BLA BLA BLA BLA BLA BLA BLA BLA BLA BLA 
BLA BLA BLA BLA BLA BLA BLA BLA BLA BLA BLA BLA BLA BLA BLA BLA BLA BLA BLA BLA 
BLA BLA BLA BLA BLA BLA BLA BLA BLA BLA BLA BLA BLA BLA BLA BLA BLA BLA BLA BLA 
BLA BLA BLA BLA BLA BLA BLA BLA BLA BLA BLA BLA BLA BLA BLA BLA BLA BLA BLA BLA 
BLA BLA BLA BLA BLA BLA BLA BLA BLA BLA BLA BLA BLA BLA BLA BLA BLA BLA BLA BLA 
BLA BLA BLA BLA BLA BLA BLA BLA BLA BLA BLA BLA BLA BLA BLA BLA BLA BLA BLA BLA 
BLA BLA BLA BLA BLA BLA BLA BLA BLA BLA BLA BLA BLA BLA BLA BLA BLA BLA BLA BLA 
BLA BLA BLA BLA BLA BLA BLA BLA BLA BLA BLA BLA BLA BLA BLA BLA BLA BLA BLA BLA 
BLA BLA BLA BLA BLA BLA BLA BLA BLA BLA BLA BLA BLA BLA BLA BLA BLA BLA BLA BLA 
BLA BLA BLA BLA BLA BLA BLA BLA BLA BLA BLA BLA BLA BLA BLA BLA BLA BLA BLA BLA 
BLA BLA BLA BLA BLA BLA BLA BLA BLA BLA BLA BLA BLA BLA BLA BLA BLA BLA BLA BLA 
BLA BLA BLA BLA BLA BLA BLA BLA BLA BLA BLA BLA BLA BLA BLA BLA BLA BLA BLA BLA 
BLA BLA BLA BLA BLA BLA BLA BLA BLA BLA BLA BLA BLA BLA BLA BLA BLA BLA BLA BLA 
BLA BLA BLA BLA BLA BLA BLA BLA BLA BLA BLA BLA BLA BLA BLA BLA BLA BLA BLA BLA 
BLA BLA BLA BLA BLA BLA BLA BLA BLA BLA BLA BLA BLA BLA BLA BLA BLA BLA BLA BLA 
BLA BLA BLA BLA BLA BLA BLA BLA BLA BLA BLA BLA BLA BLA BLA BLA BLA BLA BLA BLA 
BLA BLA BLA BLA BLA BLA BLA BLA BLA BLA BLA BLA BLA BLA BLA BLA BLA BLA BLA BLA 
BLA BLA BLA BLA BLA BLA BLA BLA BLA BLA BLA BLA BLA BLA BLA BLA BLA BLA BLA BLA 
BLA BLA BLA BLA BLA BLA BLA BLA BLA BLA BLA BLA BLA BLA BLA BLA BLA BLA BLA BLA 
BLA BLA BLA BLA BLA BLA BLA BLA BLA BLA BLA BLA BLA BLA BLA 
%FLAG JOIN_ARRAY                                                                
%FORMAT(10I8)                                                                   
       0       0       0       0       0       0       0       0       0       0
       0       0       0       0       0       0       0       0       0       0
       0       0       0       0       0       0       0       0       0       0
       0       0       0       0       0       0       0       0       0       0
       0       0       0       0       0       0       0       0       0       0
       0       0       0       0       0       0       0       0       0       0
       0       0       0       0       0       0       0       0       0       0
       0       0       0       0       0       0       0       0       0       0
       0       0       0       0       0       0       0       0       0       0
       0       0       0       0       0       0       0       0       0       0
       0       0       0       0       0       0       0       0       0       0
       0       0       0       0       0       0       0       0       0       0
       0       0       0       0       0       0       0       0       0       0
       0       0       0       0       0       0       0       0       0       0
       0       0       0       0       0       0       0       0       0       0
       0       0       0       0       0       0       0       0       0       0
       0       0       0       0       0       0       0       0       0       0
       0       0       0       0       0       0       0       0       0       0
       0       0       0       0       0       0       0       0       0       0
       0       0       0       0       0       0       0       0       0       0
       0       0       0       0       0       0       0       0       0       0
       0       0       0       0       0       0       0       0       0       0
       0       0       0       0       0       0       0       0       0       0
       0       0       0       0       0       0       0       0       0       0
       0       0       0       0       0       0       0       0       0       0
       0       0       0       0       0       0       0       0       0       0
       0       0       0       0       0       0       0       0       0       0
       0       0       0       0       0       0       0       0       0       0
       0       0       0       0       0       0       0       0       0       0
       0       0       0       0       0       0       0       0       0       0
       0       0       0       0       0       0       0       0       0       0
       0       0       0       0       0       0       0       0       0       0
       0       0       0       0       0       0       0       0       0       0
       0       0       0       0       0       0       0       0       0       0
       0       0       0       0       0       0       0       0       0       0
       0       0       0       0       0       0       0       0       0       0
       0       0       0       0       0       0       0       0       0       0
       0       0       0       0       0       0       0       0       0       0
       0       0       0       0       0       0       0       0       0       0
       0       0       0       0       0       0       0       0       0       0
       0       0       0       0       0       0       0       0       0       0
       0       0       0       0       0       0       0       0       0       0
       0       0       0       0       0       0       0       0       0       0
       0       0       0       0       0       0       0       0       0       0
       0       0       0       0       0       0       0       0       0       0
       0       0       0       0       0       0       0       0       0       0
       0       0       0       0       0       0       0       0       0       0
       0       0       0       0       0       0       0       0       0       0
       0       0       0       0       0       0       0       0       0       0
       0       0       0       0       0       0       0       0       0       0
       0       0       0       0       0       0       0       0       0       0
       0       0       0       0       0       0       0       0       0       0
       0       0       0       0       0       0       0       0       0       0
       0       0       0       0       0       0       0       0       0       0
       0       0       0       0       0       0       0       0       0       0
       0       0       0       0       0       0       0       0       0       0
       0       0       0       0       0       0       0       0       0       0
       0       0       0       0       0       0       0       0       0       0
       0       0       0       0       0       0       0       0       0       0
       0       0       0       0       0       0       0       0       0       0
       0       0       0       0       0       0       0       0       0       0
       0       0       0       0       0       0       0       0       0       0
       0       0       0       0       0       0       0       0       0       0
       0       0       0       0       0       0       0       0       0       0
       0       0       0       0       0       0       0       0       0       0
       0       0       0       0       0       0       0       0       0       0
       0       0       0       0       0       0       0       0       0       0
       0       0       0       0       0       0       0       0       0       0
       0       0       0       0       0       0       0       0       0       0
       0       0       0       0       0       0       0       0       0       0
       0       0       0       0       0       0       0       0       0       0
       0       0       0       0       0       0       0       0       0       0
       0       0       0       0       0       0       0       0       0       0
       0       0       0       0       0       0       0       0       0       0
       0       0       0       0       0       0       0       0       0       0
       0       0       0       0       0       0       0       0       0       0
       0       0       0       0       0       0       0       0       0       0
       0       0       0       0       0       0       0       0       0       0
       0       0       0       0       0       0       0       0       0       0
       0       0       0       0       0       0       0       0       0       0
       0       0       0       0       0       0       0       0       0       0
       0       0       0       0       0       0       0       0       0       0
       0       0       0       0       0       0       0       0       0       0
       0       0       0       0       0       0       0       0       0       0
       0       0       0       0       0       0       0       0       0       0
       0       0       0       0       0       0       0       0       0       0
       0       0       0       0       0       0       0       0       0       0
       0       0       0       0       0       0       0       0       0       0
       0       0       0       0       0       0       0       0       0       0
       0       0       0       0       0       0       0       0       0       0
       0       0       0       0       0       0       0       0       0       0
       0       0       0       0       0       0       0       0       0       0
       0       0       0       0       0       0       0       0       0       0
       0       0       0       0       0       0       0       0       0       0
       0       0       0       0       0       0       0       0       0       0
       0       0       0       0       0       0       0       0       0       0
       0       0       0       0       0       0       0       0       0       0
       0       0       0       0       0       0       0       0       0       0
       0       0       0       0       0       0       0       0       0       0
       0       0       0       0       0       0       0       0       0       0
       0       0       0       0       0       0       0       0       0       0
       0       0       0       0       0       0       0       0       0       0
       0       0       0       0       0       0       0       0       0       0
       0       0       0       0       0       0       0       0       0       0
       0       0       0       0       0       0       0       0       0       0
       0       0       0       0       0       0       0       0       0       0
       0       0       0       0       0       0       0       0       0       0
       0       0       0       0       0       0       0       0       0       0
       0       0       0       0       0       0       0       0       0       0
       0       0       0       0       0       0       0       0       0       0
       0       0       0       0       0       0       0       0       0       0
       0       0       0       0       0       0       0       0       0       0
       0       0       0       0       0       0       0       0       0       0
       0       0       0       0       0       0       0       0       0       0
       0       0       0       0       0       0       0       0       0       0
       0       0       0       0       0       0       0       0       0       0
       0       0       0       0       0       0       0       0       0       0
       0       0       0       0       0       0       0       0       0       0
       0       0       0       0       0       0       0       0       0       0
       0       0       0       0       0       0       0       0       0       0
       0       0       0       0       0       0       0       0       0       0
       0       0       0       0       0       0       0       0       0       0
       0       0       0       0       0       0       0       0       0       0
       0       0       0       0       0       0       0       0       0       0
       0       0       0       0       0       0       0       0       0       0
       0       0       0       0       0       0       0       0       0       0
       0       0       0       0       0       0       0       0       0       0
       0       0       0       0       0       0       0       0       0       0
       0       0       0       0       0       0       0       0       0       0
       0       0       0       0       0       0       0       0       0       0
       0       0       0       0       0       0       0       0       0       0
       0       0       0       0       0       0       0       0       0       0
       0       0       0       0       0       0       0       0       0       0
       0       0       0       0       0       0       0       0       0       0
       0       0       0       0       0       0       0       0       0       0
       0       0       0       0       0       0       0       0       0       0
       0       0       0       0       0       0       0       0       0       0
       0       0       0       0       0       0       0       0       0       0
       0       0       0       0       0       0       0       0       0       0
       0       0       0       0       0       0       0       0       0       0
       0       0       0       0       0       0       0       0       0       0
       0       0       0       0       0       0       0       0       0       0
       0       0       0       0       0       0       0       0       0       0
       0       0       0       0       0       0       0       0       0       0
       0       0       0       0       0       0       0       0       0       0
       0       0       0       0       0       0       0       0       0       0
       0       0       0       0       0       0       0       0       0       0
       0       0       0       0       0       0       0       0       0       0
       0       0       0       0       0       0       0       0       0       0
       0       0       0       0       0       0       0       0       0       0
       0       0       0       0       0       0       0       0       0       0
       0       0       0       0       0       0       0       0       0       0
       0       0       0       0       0       0       0       0       0       0
       0       0       0       0       0       0       0       0       0       0
       0       0       0       0       0       0       0       0       0       0
       0       0       0       0       0       0       0       0       0       0
       0       0       0       0       0       0       0       0       0       0
       0       0       0       0       0       0       0       0       0       0
       0       0       0       0       0       0       0       0       0       0
       0       0       0       0       0       0       0       0       0       0
       0       0       0       0       0       0       0       0       0       0
       0       0       0       0       0       0       0       0       0       0
       0       0       0       0       0       0       0       0       0       0
       0       0       0       0       0       0       0       0       0       0
       0       0       0       0       0       0       0       0       0       0
       0       0       0       0       0       0       0       0       0       0
       0       0       0       0       0       0       0       0       0       0
       0       0       0       0       0       0       0       0       0       0
       0       0       0       0       0       0       0       0       0       0
       0       0       0       0       0       0       0       0       0       0
       0       0       0       0       0       0       0       0       0       0
       0       0       0       0       0       0       0       0       0       0
       0       0       0       0       0       0       0       0       0       0
       0       0       0       0       0       0       0       0       0       0
       0       0       0       0       0       0       0       0       0       0
       0       0       0       0       0       0       0       0       0       0
       0       0       0       0       0       0       0       0       0       0
       0       0       0       0       0       0       0       0       0       0
       0       0       0       0       0       0       0       0       0       0
       0       0       0       0       0       0       0       0       0       0
       0       0       0       0       0       0       0       0       0       0
       0       0       0       0       0       0       0       0       0       0
       0       0       0       0       0       0       0       0       0       0
       0       0       0       0       0       0       0       0       0       0
       0       0       0       0       0       0       0       0       0       0
       0       0       0       0       0       0       0       0       0       0
       0       0       0       0       0       0       0       0       0       0
       0       0       0       0       0       0       0       0       0       0
       0       0       0       0       0       0       0       0       0       0
       0       0       0       0       0       0       0       0       0       0
       0       0       0       0       0       0       0       0       0       0
       0       0       0       0       0       0       0       0       0       0
       0       0       0       0       0       0       0       0       0       0
       0       0       0       0       0       0       0       0       0       0
       0       0       0       0       0       0       0       0       0       0
       0       0       0       0       0       0       0       0       0       0
       0       0       0       0       0       0       0       0       0       0
       0       0       0       0       0       0       0       0       0       0
       0       0       0       0       0       0       0       0       0       0
       0       0       0       0       0       0       0       0       0       0
       0       0       0       0       0       0       0       0       0       0
       0       0       0       0       0       0       0       0       0       0
       0       0       0       0       0       0       0       0       0       0
       0       0       0       0       0       0       0       0       0       0
       0       0       0       0       0       0       0       0       0       0
       0       0       0       0       0       0       0       0       0       0
       0       0       0       0       0       0       0       0       0       0
       0       0       0       0       0       0       0       0       0       0
       0       0       0       0       0       0       0       0       0       0
       0       0       0       0       0       0       0       0       0       0
       0       0       0       0       0       0       0       0       0       0
       0       0       0       0       0       0       0       0       0       0
       0       0       0       0       0       0       0       0       0       0
       0       0       0       0       0       0       0       0       0       0
       0       0       0       0       0       0       0       0       0       0
       0       0       0       0       0       0       0       0       0       0
       0       0       0       0       0       0       0       0       0       0
       0       0       0       0       0       0       0       0       0       0
       0       0       0       0       0       0       0       0       0       0
       0       0       0       0       0       0       0       0       0       0
       0       0       0       0       0       0       0       0       0       0
       0       0       0       0       0       0       0       0       0       0
       0       0       0       0       0       0       0       0       0       0
       0       0       0       0       0       0       0       0       0       0
       0       0       0       0       0       0       0       0       0       0
       0       0       0       0       0       0       0       0       0       0
       0       0       0       0       0       0       0       0       0       0
       0       0       0       0       0       0       0       0       0       0
       0       0       0       0       0       0       0       0       0       0
       0       0       0       0       0       0       0       0       0       0
       0       0       0       0       0       0       0       0       0       0
       0       0       0       0       0       0       0       0       0       0
       0       0       0       0       0       0       0       0       0       0
       0       0       0       0       0       0       0       0       0       0
       0       0       0       0       0       0       0       0       0       0
       0       0       0       0       0       0       0       0       0       0
       0       0       0       0       0       0       0       0       0       0
       0       0       0       0       0       0       0       0       0       0
       0       0       0       0       0       0       0       0       0       0
       0       0       0       0       0       0       0       0       0       0
       0       0       0       0       0       0       0       0       0       0
       0       0       0       0       0       0       0       0       0       0
       0       0       0       0       0       0       0       0       0       0
       0       0       0       0       0       0       0       0       0       0
       0       0       0       0       0       0       0       0       0       0
       0       0       0       0       0       0       0       0       0       0
       0       0       0       0       0       0       0       0       0       0
       0       0       0       0       0       0       0       0       0       0
       0       0       0       0       0       0       0       0       0       0
       0       0       0       0       0       0       0       0       0       0
       0       0       0       0       0       0       0       0       0       0
       0       0       0       0       0       0       0       0       0       0
       0       0       0       0       0       0       0       0       0       0
       0       0       0       0       0       0       0       0       0       0
       0       0       0       0       0       0       0       0       0       0
       0       0       0       0       0       0       0       0       0       0
       0       0       0       0       0       0       0       0       0       0
       0       0       0       0       0       0       0       0       0       0
       0       0       0       0       0       0       0       0       0       0
       0       0       0       0       0       0       0       0       0       0
       0       0       0       0       0       0       0       0       0       0
       0       0       0       0       0       0       0       0       0       0
       0       0       0       0       0       0       0       0       0       0
       0       0       0       0       0       0       0       0       0       0
       0       0       0       0       0       0       0       0       0       0
       0       0       0       0       0       0       0       0       0       0
       0       0       0       0       0       0       0       0       0       0
       0       0       0       0       0       0       0       0       0       0
       0       0       0       0       0       0       0       0       0       0
       0       0       0       0       0       0       0       0       0       0
       0       0       0       0       0       0       0       0       0       0
       0       0       0       0       0       0       0       0       0       0
       0       0       0       0       0       0       0       0       0       0
       0       0       0       0       0       0       0       0       0       0
       0       0       0       0       0       0       0       0       0       0
       0       0       0       0       0       0       0       0       0       0
       0       0       0       0       0       0       0       0       0       0
       0       0       0       0       0       0       0       0       0       0
       0       0       0       0       0       0       0       0       0       0
       0       0       0       0       0       0       0       0       0       0
       0       0       0       0       0       0       0       0       0       0
       0       0       0       0       0       0       0       0       0       0
       0       0       0       0       0       0       0       0       0       0
       0       0       0       0       0       0       0       0       0       0
       0       0       0       0       0       0       0       0       0       0
       0       0       0       0       0       0       0       0       0       0
       0       0       0       0       0       0       0       0       0       0
       0       0       0       0       0       0       0       0       0       0
       0       0       0       0       0       0       0       0       0       0
       0       0       0       0       0       0       0       0       0       0
       0       0       0       0       0       0       0       0       0       0
       0       0       0       0       0       0       0       0       0       0
       0       0       0       0       0       0       0       0       0       0
       0       0       0       0       0       0       0       0       0       0
       0       0       0       0       0       0       0       0       0       0
       0       0       0       0       0       0       0       0       0       0
       0       0       0       0       0       0       0       0       0       0
       0       0       0       0       0       0       0       0       0       0
       0       0       0       0       0       0       0       0       0       0
       0       0       0       0       0       0       0       0       0       0
       0       0       0       0       0       0       0       0       0       0
       0       0       0       0       0       0       0       0       0       0
       0       0       0       0       0       0       0       0       0       0
       0       0       0       0       0       0       0       0       0       0
       0       0       0       0       0       0       0       0       0       0
       0       0       0       0       0       0       0       0       0       0
       0       0       0       0       0       0       0       0       0       0
       0       0       0       0       0       0       0       0       0       0
       0       0       0       0       0       0       0       0       0       0
       0       0       0       0       0       0       0       0       0       0
       0       0       0       0       0       0       0       0       0       0
       0       0       0       0       0       0       0       0       0       0
       0       0       0       0       0       0       0       0       0       0
       0       0       0       0       0       0       0       0       0       0
       0       0       0       0       0       0       0       0       0       0
       0       0       0       0       0       0       0       0       0       0
       0       0       0       0       0       0       0       0       0       0
       0       0       0       0       0       0       0       0       0       0
       0       0       0       0       0       0       0       0       0       0
       0       0       0       0       0       0       0       0       0       0
       0       0       0       0       0       0       0       0       0       0
       0       0       0       0       0       0       0       0       0       0
       0       0       0       0       0       0       0       0       0       0
       0       0       0       0       0       0       0       0       0       0
       0       0       0       0       0       0       0       0       0       0
       0       0       0       0       0       0       0       0       0       0
       0       0       0       0       0       0       0       0       0       0
       0       0       0       0       0       0       0       0       0       0
       0       0       0       0       0       0       0       0       0       0
       0       0       0       0       0       0       0       0       0       0
       0       0       0       0       0       0       0       0       0       0
       0       0       0       0       0       0       0       0       0       0
       0       0       0       0       0       0       0       0       0       0
       0       0       0       0       0       0       0       0       0       0
       0       0       0       0       0       0       0       0       0       0
       0       0       0       0       0       0       0       0       0       0
       0       0       0       0       0       0       0       0       0       0
       0       0       0       0       0       0       0       0       0       0
       0       0       0       0       0       0       0       0       0       0
       0       0       0       0       0       0       0       0       0       0
       0       0       0       0       0       0       0       0       0       0
       0       0       0       0       0       0       0       0       0       0
       0       0       0       0       0       0       0       0       0       0
       0       0       0       0       0       0       0       0       0       0
       0       0       0       0       0       0       0       0       0       0
       0       0       0       0       0       0       0       0       0       0
       0       0       0       0       0       0       0       0       0       0
       0       0       0       0       0       0       0       0       0       0
       0       0       0       0       0       0       0       0       0       0
       0       0       0       0       0       0       0       0       0       0
       0       0       0       0       0       0       0       0       0       0
       0       0       0       0       0       0       0       0       0       0
       0       0       0       0       0       0       0       0       0       0
       0       0       0       0       0       0       0       0       0       0
       0       0       0       0       0       0       0       0       0       0
       0       0       0       0       0       0       0       0       0       0
       0       0       0       0       0       0       0       0       0       0
       0       0       0       0       0       0       0       0       0       0
       0       0       0       0       0       0       0       0       0       0
       0       0       0       0       0       0       0       0       0       0
       0       0       0       0       0       0       0       0       0       0
       0       0       0       0       0       0       0       0       0       0
       0       0       0       0       0       0       0       0       0       0
       0       0       0       0       0       0       0       0       0       0
       0       0       0       0       0       0       0       0       0       0
       0       0       0       0       0       0       0       0       0       0
       0       0       0       0       0       0       0       0       0       0
       0       0       0       0       0       0       0       0       0       0
       0       0       0       0       0       0       0       0       0       0
       0       0       0       0       0       0       0       0       0       0
       0       0       0       0       0       0       0       0       0       0
       0       0       0       0       0       0       0       0       0       0
       0       0       0       0       0       0       0       0       0       0
       0       0       0       0       0       0       0       0       0       0
       0       0       0       0       0       0       0       0       0       0
       0       0       0       0       0       0       0       0       0       0
       0       0       0       0       0       0       0       0       0       0
       0       0       0       0       0       0       0       0       0       0
       0       0       0       0       0       0       0       0       0       0
       0       0       0       0       0       0       0       0       0       0
       0       0       0       0       0       0       0       0       0       0
       0       0       0       0       0       0       0       0       0       0
       0       0       0       0       0       0       0       0       0       0
       0       0       0       0       0       0       0       0       0       0
       0       0       0       0       0       0       0       0       0       0
       0       0       0       0       0       0       0       0       0       0
       0       0       0       0       0       0       0       0       0       0
       0       0       0       0       0       0       0       0       0       0
       0       0       0       0       0       0       0       0       0       0
       0       0       0       0       0       0       0       0       0       0
       0       0       0       0       0       0       0       0       0       0
       0       0       0       0       0       0       0       0       0       0
       0       0       0       0       0       0       0       0       0       0
       0       0       0       0       0       0       0       0       0       0
       0       0       0       0       0       0       0       0       0       0
       0       0       0       0       0       0       0       0       0       0
       0       0       0       0       0       0       0       0       0       0
       0       0       0       0       0       0       0       0       0       0
       0       0       0       0       0       0       0       0       0       0
       0       0       0       0       0       0       0       0       0       0
       0       0       0       0       0       0       0       0       0       0
       0       0       0       0       0       0       0       0       0       0
       0       0       0       0       0       0       0       0       0       0
       0       0       0       0       0       0       0       0       0       0
       0       0       0       0       0       0       0       0       0       0
       0       0       0       0       0       0       0       0       0       0
       0       0       0       0       0       0       0       0       0       0
       0       0       0       0       0       0       0       0       0       0
       0       0       0       0       0       0       0       0       0       0
       0       0       0       0       0       0       0       0       0       0
       0       0       0       0       0       0       0       0       0       0
       0       0       0       0       0       0       0       0       0       0
       0       0       0       0       0       0       0       0       0       0
       0       0       0       0       0       0       0       0       0       0
       0       0       0       0       0       0       0       0       0       0
       0       0       0       0       0       0       0       0       0       0
       0       0       0       0       0       0       0       0       0       0
       0       0       0       0       0       0       0       0       0       0
       0       0       0       0       0       0       0       0       0       0
       0       0       0       0       0       0       0       0       0       0
       0       0       0       0       0       0       0       0       0       0
       0       0       0       0       0       0       0       0       0       0
       0       0       0       0       0       0       0       0       0       0
       0       0       0       0       0       0       0       0       0       0
       0       0       0       0       0       0       0       0       0       0
       0       0       0       0       0       0       0       0       0       0
       0       0       0       0       0       0       0       0       0       0
       0       0       0       0       0       0       0       0       0       0
       0       0       0       0       0       0       0       0       0       0
       0       0       0       0       0       0       0       0       0       0
       0       0       0       0       0       0       0       0       0       0
       0       0       0       0       0       0       0       0       0       0
       0       0       0       0       0       0       0       0       0       0
       0       0       0       0       0       0       0       0       0       0
       0       0       0       0       0       0       0       0       0       0
       0       0       0       0       0       0       0       0       0       0
       0       0       0       0       0       0       0       0       0       0
       0       0       0       0       0       0       0       0       0       0
       0       0       0       0       0       0       0       0       0       0
       0       0       0       0       0       0       0       0       0       0
       0       0       0       0       0       0       0       0       0       0
       0       0       0       0       0       0       0       0       0       0
       0       0       0       0       0       0       0       0       0       0
       0       0       0       0       0       0       0       0       0       0
       0       0       0       0       0       0       0       0       0       0
       0       0       0       0       0       0       0       0       0       0
       0       0       0       0       0       0       0       0       0       0
       0       0       0       0       0       0       0       0       0       0
       0       0       0       0       0       0       0       0       0       0
       0       0       0       0       0       0       0       0       0       0
       0       0       0       0       0       0       0       0       0       0
       0       0       0       0       0       0       0       0       0       0
       0       0       0       0       0       0       0       0       0       0
       0       0       0       0       0       0       0       0       0       0
       0       0       0       0       0       0       0       0       0       0
       0       0       0       0       0       0       0       0       0       0
       0       0       0       0       0       0       0       0       0       0
       0       0       0       0       0       0       0       0       0       0
       0       0       0       0       0       0       0       0       0       0
       0       0       0       0       0       0       0       0       0       0
       0       0       0       0       0       0       0       0       0       0
       0       0       0       0       0       0       0       0       0       0
       0       0       0       0       0       0       0       0       0       0
       0       0       0       0       0       0       0       0       0       0
       0       0       0       0       0       0       0       0       0       0
       0       0       0       0       0       0       0       0       0       0
       0       0       0       0       0       0       0       0       0       0
       0       0       0       0       0       0       0       0       0       0
       0       0       0       0       0       0       0       0       0       0
       0       0       0       0       0       0       0       0       0       0
       0       0       0       0       0       0       0       0       0       0
       0       0       0       0       0       0       0       0       0       0
       0       0       0       0       0       0       0       0       0       0
       0       0       0       0       0       0       0       0       0       0
       0       0       0       0       0       0       0       0       0       0
       0       0       0       0       0       0       0       0       0       0
       0       0       0       0       0       0       0       0       0       0
       0       0       0       0       0       0       0       0       0       0
       0       0       0       0       0       0       0       0       0       0
       0       0       0       0       0       0       0       0       0       0
       0       0       0       0       0       0       0       0       0       0
       0       0       0       0       0       0       0       0       0       0
       0       0       0       0       0       0       0       0       0       0
       0       0       0       0       0       0       0       0       0       0
       0       0       0       0       0       0       0       0       0       0
       0       0       0       0       0       0       0       0       0       0
       0       0       0       0       0       0       0       0       0       0
       0       0       0       0       0       0       0       0       0       0
       0       0       0       0       0       0       0       0       0       0
       0       0       0       0       0       0       0       0       0       0
       0       0       0       0       0       0       0       0       0       0
       0       0       0       0       0       0       0       0       0       0
       0       0       0       0       0       0       0       0       0       0
       0       0       0       0       0       0       0       0       0       0
       0       0       0       0       0       0       0       0       0       0
       0       0       0       0       0       0       0       0       0       0
       0       0       0       0       0       0       0       0       0       0
       0       0       0       0       0       0       0       0       0       0
       0       0       0       0       0       0       0       0       0       0
       0       0       0       0       0       0       0       0       0       0
       0       0       0       0       0       0       0       0       0       0
       0       0       0       0       0       0       0       0       0       0
       0       0       0       0       0       0       0       0       0       0
       0       0       0       0       0       0       0       0       0       0
       0       0       0       0       0       0       0       0       0       0
       0       0       0       0       0       0       0       0       0       0
       0       0       0       0       0       0       0       0       0       0
       0       0       0       0       0       0       0       0       0       0
       0       0       0       0       0       0       0       0       0       0
       0       0       0       0       0       0       0       0       0       0
       0       0       0       0       0       0       0       0       0       0
       0       0       0       0       0       0       0       0       0       0
       0       0       0       0       0       0       0       0       0       0
       0       0       0       0       0       0       0       0       0       0
       0       0       0       0       0       0       0       0       0       0
       0       0       0       0       0       0       0       0       0       0
       0       0       0       0       0       0       0       0       0       0
       0       0       0       0       0       0       0       0       0       0
       0       0       0       0       0       0       0       0       0       0
       0       0       0       0       0       0       0       0       0       0
       0       0       0       0       0       0       0       0       0       0
       0       0       0       0       0       0       0       0       0       0
       0       0       0       0       0       0       0       0       0       0
       0       0       0       0       0       0       0       0       0       0
       0       0       0       0       0       0       0       0       0       0
       0       0       0       0       0       0       0       0       0       0
       0       0       0       0       0       0       0       0       0       0
       0       0       0       0       0       0       0       0       0       0
       0       0       0       0       0       0       0       0       0       0
       0       0       0       0       0       0       0       0       0       0
       0       0       0       0       0       0       0       0       0       0
       0       0       0       0       0       0       0       0       0       0
       0       0       0       0       0       0       0       0       0       0
       0       0       0       0       0       0       0       0       0       0
       0       0       0       0       0       0       0       0       0       0
       0       0       0       0       0       0       0       0       0       0
       0       0       0       0       0       0       0       0       0       0
       0       0       0       0       0       0       0       0       0       0
       0       0       0       0       0       0       0       0       0       0
       0       0       0       0       0       0       0       0       0       0
       0       0       0       0       0       0       0       0       0       0
       0       0       0       0       0       0       0       0       0       0
       0       0       0       0       0       0       0       0       0       0
       0       0       0       0       0       0       0       0       0       0
       0       0       0       0       0       0       0       0       0       0
       0       0       0       0       0       0       0       0       0       0
       0       0       0       0       0       0       0       0       0       0
       0       0       0       0       0       0       0       0       0       0
       0       0       0       0       0       0       0       0       0       0
       0       0       0       0       0       0       0       0       0       0
       0       0       0       0       0       0       0       0       0       0
       0       0       0       0       0       0       0       0       0       0
       0       0       0       0       0       0       0       0       0       0
       0       0       0       0       0       0       0       0       0       0
       0       0       0       0       0       0       0       0       0       0
       0       0       0       0       0       0       0       0       0       0
       0       0       0       0       0       0       0       0       0       0
       0       0       0       0       0       0       0       0       0       0
       0       0       0       0       0       0       0       0       0       0
       0       0       0       0       0       0       0       0       0       0
       0       0       0       0       0       0       0       0       0       0
       0       0       0       0       0       0       0       0       0       0
       0       0       0       0       0       0       0       0       0       0
       0       0       0       0       0       0       0       0       0       0
       0       0       0       0       0       0       0       0       0       0
       0       0       0       0       0       0       0       0       0       0
       0       0       0       0       0       0       0       0       0       0
       0       0       0       0       0       0       0       0       0       0
       0       0       0       0       0       0       0       0       0       0
       0       0       0       0       0       0       0       0       0       0
       0       0       0       0       0       0       0       0       0       0
       0       0       0       0       0       0       0       0       0       0
       0       0       0       0       0       0       0       0       0       0
       0       0       0       0       0       0       0       0       0       0
       0       0       0       0       0       0       0       0       0       0
       0       0       0       0       0       0       0       0       0       0
       0       0       0       0       0       0       0       0       0       0
       0       0       0       0       0       0       0       0       0       0
       0       0       0       0       0       0       0       0       0       0
       0       0       0       0       0       0       0       0       0       0
       0       0       0       0       0       0       0       0       0       0
       0       0       0       0       0       0       0       0       0       0
       0       0       0       0       0       0       0       0       0       0
       0       0       0       0       0       0       0       0       0       0
       0       0       0       0       0       0       0       0       0       0
       0       0       0       0       0       0       0       0       0       0
       0       0       0       0       0       0       0       0       0       0
       0       0       0       0       0       0       0       0       0       0
       0       0       0       0       0       0       0       0       0       0
       0       0       0       0       0       0       0       0       0       0
       0       0       0       0       0       0       0       0       0       0
       0       0       0       0       0       0       0       0       0       0
       0       0       0       0       0       0       0       0       0       0
       0       0       0       0       0       0       0       0       0       0
       0       0       0       0       0       0       0       0       0       0
       0       0       0       0       0       0       0       0       0       0
       0       0       0       0       0       0       0       0       0       0
       0       0       0       0       0       0       0       0       0       0
       0       0       0       0       0       0       0       0       0       0
       0       0       0       0       0       0       0       0       0       0
       0       0       0       0       0       0       0       0       0       0
       0       0       0       0       0       0       0       0       0       0
       0       0       0       0       0       0       0       0       0       0
       0       0       0       0       0       0       0       0       0       0
       0       0       0       0       0       0       0       0       0       0
       0       0       0       0       0       0       0       0       0       0
       0       0       0       0       0       0       0       0       0       0
       0       0       0       0       0       0       0       0       0       0
       0       0       0       0       0       0       0       0       0       0
       0       0       0       0       0       0       0       0       0       0
       0       0       0       0       0       0       0       0       0       0
       0       0       0       0       0       0       0       0       0       0
       0       0       0       0       0       0       0       0       0       0
       0       0       0       0       0       0       0       0       0       0
       0       0       0       0       0       0       0       0       0       0
       0       0       0       0       0       0       0       0       0       0
       0       0       0       0       0       0       0       0       0       0
       0       0       0       0       0       0       0       0       0       0
       0       0       0       0       0       0       0       0       0       0
       0       0       0       0       0       0       0       0       0       0
       0       0       0       0       0       0       0       0       0       0
       0       0       0       0       0       0       0       0       0       0
       0       0       0       0       0       0       0       0       0       0
       0       0       0       0       0       0       0       0       0       0
       0       0       0       0       0       0       0       0       0       0
       0       0       0       0       0       0       0       0       0       0
       0       0       0       0       0       0       0       0       0       0
       0       0       0       0       0       0       0       0       0       0
       0       0       0       0       0       0       0       0       0       0
       0       0       0       0       0       0       0       0       0       0
       0       0       0       0       0       0       0       0       0       0
       0       0       0       0       0       0       0       0       0       0
       0       0       0       0       0       0       0       0       0       0
       0       0       0       0       0       0       0       0       0       0
       0       0       0       0       0       0       0       0       0       0
       0       0       0       0       0       0       0       0       0       0
       0       0       0       0       0       0       0       0       0       0
       0       0       0       0       0       0       0       0       0       0
       0       0       0       0       0       0       0       0       0       0
       0       0       0       0       0       0       0       0       0       0
       0       0       0       0       0       0       0       0       0       0
       0       0       0       0       0       0       0       0       0       0
       0       0       0       0       0       0       0       0       0       0
       0       0       0       0       0       0       0       0       0       0
       0       0       0       0       0       0       0       0       0       0
       0       0       0       0       0       0       0       0       0       0
       0       0       0       0       0       0       0       0       0       0
       0       0       0       0       0       0       0       0       0       0
       0       0       0       0       0       0       0       0       0       0
       0       0       0       0       0       0       0       0       0       0
       0       0       0       0       0       0       0       0       0       0
       0       0       0       0       0       0       0       0       0       0
       0       0       0       0       0       0       0       0       0       0
       0       0       0       0       0       0       0       0       0       0
       0       0       0       0       0       0       0       0       0       0
       0       0       0       0       0       0       0       0       0       0
       0       0       0       0       0       0       0       0       0       0
       0       0       0       0       0       0       0       0       0       0
       0       0       0       0       0       0       0       0       0       0
       0       0       0       0       0       0       0       0       0       0
       0       0       0       0       0       0       0       0       0       0
       0       0       0       0       0       0       0       0       0       0
       0       0       0       0       0       0       0       0       0       0
       0       0       0       0       0       0       0       0       0       0
       0       0       0       0       0       0       0       0       0       0
       0       0       0       0       0       0       0       0       0       0
       0       0       0       0       0       0       0       0       0       0
       0       0       0       0       0       0       0       0       0       0
       0       0       0       0       0       0       0       0       0       0
       0       0       0       0       0       0       0       0       0       0
       0       0       0       0       0       0       0       0       0       0
       0       0       0       0       0       0       0       0       0       0
       0       0       0       0       0       0       0       0       0       0
       0       0       0       0       0       0       0       0       0       0
       0       0       0       0       0       0       0       0       0       0
       0       0       0       0       0       0       0       0       0       0
       0       0       0       0       0       0       0       0       0       0
       0       0       0       0       0       0       0       0       0       0
       0       0       0       0       0       0       0       0       0       0
       0       0       0       0       0       0       0       0       0       0
       0       0       0       0       0       0       0       0       0       0
       0       0       0       0       0       0       0       0       0       0
       0       0       0       0       0       0       0       0       0       0
       0       0       0       0       0       0       0       0       0       0
       0       0       0       0       0       0       0       0       0       0
       0       0       0       0       0       0       0       0       0       0
       0       0       0       0       0       0       0       0       0       0
       0       0       0       0       0       0       0       0       0       0
       0       0       0       0       0       0       0       0       0       0
       0       0       0       0       0       0       0       0       0       0
       0       0       0       0       0       0       0       0       0       0
       0       0       0       0       0       0       0       0       0       0
       0       0       0       0       0       0       0       0       0       0
       0       0       0       0       0       0       0       0       0       0
       0       0       0       0       0       0       0       0       0       0
       0       0       0       0       0       0       0       0       0       0
       0       0       0       0       0       0       0       0       0       0
       0       0       0       0       0       0       0       0       0       0
       0       0       0       0       0       0       0       0       0       0
       0       0       0       0       0       0       0       0       0       0
       0       0       0       0       0       0       0       0       0       0
       0       0       0       0       0       0       0       0       0       0
       0       0       0       0       0       0       0       0       0       0
       0       0       0       0       0       0       0       0       0       0
       0       0       0       0       0       0       0       0       0       0
       0       0       0       0       0       0       0       0       0       0
       0       0       0       0       0       0       0       0       0       0
       0       0       0       0       0       0       0       0       0       0
       0       0       0       0       0       0       0       0       0       0
       0       0       0       0       0       0       0       0       0       0
       0       0       0       0       0       0       0       0       0       0
       0       0       0       0       0       0       0       0       0       0
       0       0       0       0       0       0       0       0       0       0
       0       0       0       0       0       0       0       0       0       0
       0       0       0       0       0       0       0       0       0       0
       0       0       0       0       0       0       0       0       0       0
       0       0       0       0       0       0       0       0       0       0
       0       0       0       0       0       0       0       0       0       0
       0       0       0       0       0       0       0       0       0       0
       0       0       0       0       0       0       0       0       0       0
       0       0       0       0       0       0       0       0       0       0
       0       0       0       0       0       0       0       0       0       0
       0       0       0       0       0       0       0       0       0       0
       0       0       0       0       0       0       0       0       0       0
       0       0       0       0       0       0       0       0       0       0
       0       0       0       0       0       0       0       0       0       0
       0       0       0       0       0       0       0       0       0       0
       0       0       0       0       0       0       0       0       0       0
       0       0       0       0       0       0       0       0       0       0
       0       0       0       0       0       0       0       0       0       0
       0       0       0       0       0       0       0       0       0       0
       0       0       0       0       0       0       0       0       0       0
       0       0       0       0       0       0       0       0       0       0
       0       0       0       0       0       0       0       0       0       0
       0       0       0       0       0       0       0       0       0       0
       0       0       0       0       0       0       0       0       0       0
       0       0       0       0       0       0       0       0       0       0
       0       0       0       0       0       0       0       0       0       0
       0       0       0       0       0       0       0       0       0       0
       0       0       0       0       0       0       0       0       0       0
       0       0       0       0       0       0       0       0       0       0
       0       0       0       0       0       0       0       0       0       0
       0       0       0       0       0       0       0       0       0       0
       0       0       0       0       0       0       0       0       0       0
       0       0       0       0       0       0       0       0       0       0
       0       0       0       0       0       0       0       0       0       0
       0       0       0       0       0       0       0       0       0       0
       0       0       0       0       0       0       0       0       0       0
       0       0       0       0       0       0       0       0       0       0
       0       0       0       0       0       0       0       0       0       0
       0       0       0       0       0       0       0       0       0       0
       0       0       0       0       0       0       0       0       0       0
       0       0       0       0       0       0       0       0       0       0
       0       0       0       0       0       0       0       0       0       0
       0       0       0       0       0       0       0       0       0       0
       0       0       0       0       0       0       0       0       0       0
       0       0       0       0       0       0       0       0       0       0
       0       0       0       0       0       0       0       0       0       0
       0       0       0       0       0       0       0       0       0       0
       0       0       0       0       0       0       0       0       0       0
       0       0       0       0       0       0       0       0       0       0
       0       0       0       0       0       0       0       0       0       0
       0       0       0       0       0       0       0       0       0       0
       0       0       0       0       0       0       0       0       0       0
       0       0       0       0       0       0       0       0       0       0
       0       0       0       0       0       0       0       0       0       0
       0       0       0       0       0       0       0       0       0       0
       0       0       0       0       0       0       0       0       0       0
       0       0       0       0       0       0       0       0       0       0
       0       0       0       0       0       0       0       0       0       0
       0       0       0       0       0       0       0       0       0       0
       0       0       0       0       0       0       0       0       0       0
       0       0       0       0       0       0       0       0       0       0
       0       0       0       0       0       0       0       0       0       0
       0       0       0       0       0       0       0       0       0       0
       0       0       0       0       0       0       0       0       0       0
       0       0       0       0       0       0       0       0       0       0
       0       0       0       0       0       0       0       0       0       0
       0       0       0       0       0       0       0       0       0       0
       0       0       0       0       0       0       0       0       0       0
       0       0       0       0       0       0       0       0       0       0
       0       0       0       0       0       0       0       0       0       0
       0       0       0       0       0       0       0       0       0       0
       0       0       0       0       0       0       0       0       0       0
       0       0       0       0       0       0       0       0       0       0
       0       0       0       0       0       0       0       0       0       0
       0       0       0       0       0       0       0       0       0       0
       0       0       0       0       0       0       0       0       0       0
       0       0       0       0       0       0       0       0       0       0
       0       0       0       0       0       0       0       0       0       0
       0       0       0       0       0       0       0       0       0       0
       0       0       0       0       0       0       0       0       0       0
       0       0       0       0       0       0       0       0       0       0
       0       0       0       0       0       0       0       0       0       0
       0       0       0       0       0       0       0       0       0       0
       0       0       0       0       0       0       0       0       0       0
       0       0       0       0       0       0       0       0       0       0
       0       0       0       0       0       0       0       0       0       0
       0       0       0       0       0       0       0       0       0       0
       0       0       0       0       0       0       0       0       0       0
       0       0       0       0       0       0       0       0       0       0
       0       0       0       0       0       0       0       0       0       0
       0       0       0       0       0       0       0       0       0       0
       0       0       0       0       0       0       0       0       0       0
       0       0       0       0       0       0       0       0       0       0
       0       0       0       0       0       0       0       0       0       0
       0       0       0       0       0       0       0       0       0       0
       0       0       0       0       0       0       0       0       0       0
       0       0       0       0       0       0       0       0       0       0
       0       0       0       0       0       0       0       0       0       0
       0       0       0       0       0       0       0       0       0       0
       0       0       0       0       0       0       0       0       0       0
       0       0       0       0       0       0       0       0       0       0
       0       0       0       0       0       0       0       0       0       0
       0       0       0       0       0       0       0       0       0       0
       0       0       0       0       0       0       0       0       0       0
       0       0       0       0       0       0       0       0       0       0
       0       0       0       0       0       0       0       0       0       0
       0       0       0       0       0       0       0       0       0       0
       0       0       0       0       0       0       0       0       0       0
       0       0       0       0       0       0       0       0       0       0
       0       0       0       0       0       0       0       0       0       0
       0       0       0       0       0       0       0       0       0       0
       0       0       0       0       0       0       0       0       0       0
       0       0       0       0       0       0       0       0       0       0
       0       0       0       0       0       0       0       0       0       0
       0       0       0       0       0       0       0       0       0       0
       0       0       0       0       0       0       0       0       0       0
       0       0       0       0       0       0       0       0       0       0
       0       0       0       0       0       0       0       0       0       0
       0       0       0       0       0       0       0       0       0       0
       0       0       0       0       0       0       0       0       0       0
       0       0       0       0       0       0       0       0       0       0
       0       0       0       0       0       0       0       0       0       0
       0       0       0       0       0       0       0       0       0       0
       0       0       0       0       0       0       0       0       0       0
       0       0       0       0       0       0       0       0       0       0
       0       0       0       0       0       0       0       0       0       0
       0       0       0       0       0       0       0       0       0       0
       0       0       0       0       0       0       0       0       0       0
       0       0       0       0       0       0       0       0       0       0
       0       0       0       0       0       0       0       0       0       0
       0       0       0       0       0       0       0       0       0       0
       0       0       0       0       0       0       0       0       0       0
       0       0       0       0       0       0       0       0       0       0
       0       0       0       0       0       0       0       0       0       0
       0       0       0       0       0       0       0       0       0       0
       0       0       0       0       0       0       0       0       0       0
       0       0       0       0       0       0       0       0       0       0
       0       0       0       0       0       0       0       0       0       0
       0       0       0       0       0       0       0       0       0       0
       0       0       0       0       0       0       0       0       0       0
       0       0       0       0       0       0       0       0       0       0
       0       0       0       0       0       0       0       0       0       0
       0       0       0       0       0       0       0       0       0       0
       0       0       0       0       0       0       0       0       0       0
       0       0       0       0       0       0       0       0       0       0
       0       0       0       0       0       0       0       0       0       0
       0       0       0       0       0       0       0       0       0       0
       0       0       0       0       0       0       0       0       0       0
       0       0       0       0       0       0       0       0       0       0
       0       0       0       0       0       0       0       0       0       0
       0       0       0       0       0       0       0       0       0       0
       0       0       0       0       0       0       0       0       0       0
       0       0       0       0       0       0       0       0       0       0
       0       0       0       0       0       0       0       0       0       0
       0       0       0       0       0       0       0       0       0       0
       0       0       0       0       0       0       0       0       0       0
       0       0       0       0       0       0       0       0       0       0
       0       0       0       0       0       0       0       0       0       0
       0       0       0       0       0       0       0       0       0       0
       0       0       0       0       0       0       0       0       0       0
       0       0       0       0       0       0       0       0       0       0
       0       0       0       0       0       0       0       0       0       0
       0       0       0       0       0       0       0       0       0       0
       0       0       0       0       0
%FLAG IROTAT                                                                    
%FORMAT(10I8)                                                                   
       0       0       0       0       0       0       0       0       0       0
       0       0       0       0       0       0       0       0       0       0
       0       0       0       0       0       0       0       0       0       0
       0       0       0       0       0       0       0       0       0       0
       0       0       0       0       0       0       0       0       0       0
       0       0       0       0       0       0       0       0       0       0
       0       0       0       0       0       0       0       0       0       0
       0       0       0       0       0       0       0       0       0       0
       0       0       0       0       0       0       0       0       0       0
       0       0       0       0       0       0       0       0       0       0
       0       0       0       0       0       0       0       0       0       0
       0       0       0       0       0       0       0       0       0       0
       0       0       0       0       0       0       0       0       0       0
       0       0       0       0       0       0       0       0       0       0
       0       0       0       0       0       0       0       0       0       0
       0       0       0       0       0       0       0       0       0       0
       0       0       0       0       0       0       0       0       0       0
       0       0       0       0       0       0       0       0       0       0
       0       0       0       0       0       0       0       0       0       0
       0       0       0       0       0       0       0       0       0       0
       0       0       0       0       0       0       0       0       0       0
       0       0       0       0       0       0       0       0       0       0
       0       0       0       0       0       0       0       0       0       0
       0       0       0       0       0       0       0       0       0       0
       0       0       0       0       0       0       0       0       0       0
       0       0       0       0       0       0       0       0       0       0
       0       0       0       0       0       0       0       0       0       0
       0       0       0       0       0       0       0       0       0       0
       0       0       0       0       0       0       0       0       0       0
       0       0       0       0       0       0       0       0       0       0
       0       0       0       0       0       0       0       0       0       0
       0       0       0       0       0       0       0       0       0       0
       0       0       0       0       0       0       0       0       0       0
       0       0       0       0       0       0       0       0       0       0
       0       0       0       0       0       0       0       0       0       0
       0       0       0       0       0       0       0       0       0       0
       0       0       0       0       0       0       0       0       0       0
       0       0       0       0       0       0       0       0       0       0
       0       0       0       0       0       0       0       0       0       0
       0       0       0       0       0       0       0       0       0       0
       0       0       0       0       0       0       0       0       0       0
       0       0       0       0       0       0       0       0       0       0
       0       0       0       0       0       0       0       0       0       0
       0       0       0       0       0       0       0       0       0       0
       0       0       0       0       0       0       0       0       0       0
       0       0       0       0       0       0       0       0       0       0
       0       0       0       0       0       0       0       0       0       0
       0       0       0       0       0       0       0       0       0       0
       0       0       0       0       0       0       0       0       0       0
       0       0       0       0       0       0       0       0       0       0
       0       0       0       0       0       0       0       0       0       0
       0       0       0       0       0       0       0       0       0       0
       0       0       0       0       0       0       0       0       0       0
       0       0       0       0       0       0       0       0       0       0
       0       0       0       0       0       0       0       0       0       0
       0       0       0       0       0       0       0       0       0       0
       0       0       0       0       0       0       0       0       0       0
       0       0       0       0       0       0       0       0       0       0
       0       0       0       0       0       0       0       0       0       0
       0       0       0       0       0       0       0       0       0       0
       0       0       0       0       0       0       0       0       0       0
       0       0       0       0       0       0       0       0       0       0
       0       0       0       0       0       0       0       0       0       0
       0       0       0       0       0       0       0       0       0       0
       0       0       0       0       0       0       0       0       0       0
       0       0       0       0       0       0       0       0       0       0
       0       0       0       0       0       0       0       0       0       0
       0       0       0       0       0       0       0       0       0       0
       0       0       0       0       0       0       0       0       0       0
       0       0       0       0       0       0       0       0       0       0
       0       0       0       0       0       0       0       0       0       0
       0       0       0       0       0       0       0       0       0       0
       0       0       0       0       0       0       0       0       0       0
       0       0       0       0       0       0       0       0       0       0
       0       0       0       0       0       0       0       0       0       0
       0       0       0       0       0       0       0       0       0       0
       0       0       0       0       0       0       0       0       0       0
       0       0       0       0       0       0       0       0       0       0
       0       0       0       0       0       0       0       0       0       0
       0       0       0       0       0       0       0       0       0       0
       0       0       0       0       0       0       0       0       0       0
       0       0       0       0       0       0       0       0       0       0
       0       0       0       0       0       0       0       0       0       0
       0       0       0       0       0       0       0       0       0       0
       0       0       0       0       0       0       0       0       0       0
       0       0       0       0       0       0       0       0       0       0
       0       0       0       0       0       0       0       0       0       0
       0       0       0       0       0       0       0       0       0       0
       0       0       0       0       0       0       0       0       0       0
       0       0       0       0       0       0       0       0       0       0
       0       0       0       0       0       0       0       0       0       0
       0       0       0       0       0       0       0       0       0       0
       0       0       0       0       0       0       0       0       0       0
       0       0       0       0       0       0       0       0       0       0
       0       0       0       0       0       0       0       0       0       0
       0       0       0       0       0       0       0       0       0       0
       0       0       0       0       0       0       0       0       0       0
       0       0       0       0       0       0       0       0       0       0
       0       0       0       0       0       0       0       0       0       0
       0       0       0       0       0       0       0       0       0       0
       0       0       0       0       0       0       0       0       0       0
       0       0       0       0       0       0       0       0       0       0
       0       0       0       0       0       0       0       0       0       0
       0       0       0       0       0       0       0       0       0       0
       0       0       0       0       0       0       0       0       0       0
       0       0       0       0       0       0       0       0       0       0
       0       0       0       0       0       0       0       0       0       0
       0       0       0       0       0       0       0       0       0       0
       0       0       0       0       0       0       0       0       0       0
       0       0       0       0       0       0       0       0       0       0
       0       0       0       0       0       0       0       0       0       0
       0       0       0       0       0       0       0       0       0       0
       0       0       0       0       0       0       0       0       0       0
       0       0       0       0       0       0       0       0       0       0
       0       0       0       0       0       0       0       0       0       0
       0       0       0       0       0       0       0       0       0       0
       0       0       0       0       0       0       0       0       0       0
       0       0       0       0       0       0       0       0       0       0
       0       0       0       0       0       0       0       0       0       0
       0       0       0       0       0       0       0       0       0       0
       0       0       0       0       0       0       0       0       0       0
       0       0       0       0       0       0       0       0       0       0
       0       0       0       0       0       0       0       0       0       0
       0       0       0       0       0       0       0       0       0       0
       0       0       0       0       0       0       0       0       0       0
       0       0       0       0       0       0       0       0       0       0
       0       0       0       0       0       0       0       0       0       0
       0       0       0       0       0       0       0       0       0       0
       0       0       0       0       0       0       0       0       0       0
       0       0       0       0       0       0       0       0       0       0
       0       0       0       0       0       0       0       0       0       0
       0       0       0       0       0       0       0       0       0       0
       0       0       0       0       0       0       0       0       0       0
       0       0       0       0       0       0       0       0       0       0
       0       0       0       0       0       0       0       0       0       0
       0       0       0       0       0       0       0       0       0       0
       0       0       0       0       0       0       0       0       0       0
       0       0       0       0       0       0       0       0       0       0
       0       0       0       0       0       0       0       0       0       0
       0       0       0       0       0       0       0       0       0       0
       0       0       0       0       0       0       0       0       0       0
       0       0       0       0       0       0       0       0       0       0
       0       0       0       0       0       0       0       0       0       0
       0       0       0       0       0       0       0       0       0       0
       0       0       0       0       0       0       0       0       0       0
       0       0       0       0       0       0       0       0       0       0
       0       0       0       0       0       0       0       0       0       0
       0       0       0       0       0       0       0       0       0       0
       0       0       0       0       0       0       0       0       0       0
       0       0       0       0       0       0       0       0       0       0
       0       0       0       0       0       0       0       0       0       0
       0       0       0       0       0       0       0       0       0       0
       0       0       0       0       0       0       0       0       0       0
       0       0       0       0       0       0       0       0       0       0
       0       0       0       0       0       0       0       0       0       0
       0       0       0       0       0       0       0       0       0       0
       0       0       0       0       0       0       0       0       0       0
       0       0       0       0       0       0       0       0       0       0
       0       0       0       0       0       0       0       0       0       0
       0       0       0       0       0       0       0       0       0       0
       0       0       0       0       0       0       0       0       0       0
       0       0       0       0       0       0       0       0       0       0
       0       0       0       0       0       0       0       0       0       0
       0       0       0       0       0       0       0       0       0       0
       0       0       0       0       0       0       0       0       0       0
       0       0       0       0       0       0       0       0       0       0
       0       0       0       0       0       0       0       0       0       0
       0       0       0       0       0       0       0       0       0       0
       0       0       0       0       0       0       0       0       0       0
       0       0       0       0       0       0       0       0       0       0
       0       0       0       0       0       0       0       0       0       0
       0       0       0       0       0       0       0       0       0       0
       0       0       0       0       0       0       0       0       0       0
       0       0       0       0       0       0       0       0       0       0
       0       0       0       0       0       0       0       0       0       0
       0       0       0       0       0       0       0       0       0       0
       0       0       0       0       0       0       0       0       0       0
       0       0       0       0       0       0       0       0       0       0
       0       0       0       0       0       0       0       0       0       0
       0       0       0       0       0       0       0       0       0       0
       0       0       0       0       0       0       0       0       0       0
       0       0       0       0       0       0       0       0       0       0
       0       0       0       0       0       0       0       0       0       0
       0       0       0       0       0       0       0       0       0       0
       0       0       0       0       0       0       0       0       0       0
       0       0       0       0       0       0       0       0       0       0
       0       0       0       0       0       0       0       0       0       0
       0       0       0       0       0       0       0       0       0       0
       0       0       0       0       0       0       0       0       0       0
       0       0       0       0       0       0       0       0       0       0
       0       0       0       0       0       0       0       0       0       0
       0       0       0       0       0       0       0       0       0       0
       0       0       0       0       0       0       0       0       0       0
       0       0       0       0       0       0       0       0       0       0
       0       0       0       0       0       0       0       0       0       0
       0       0       0       0       0       0       0       0       0       0
       0       0       0       0       0       0       0       0       0       0
       0       0       0       0       0       0       0       0       0       0
       0       0       0       0       0       0       0       0       0       0
       0       0       0       0       0       0       0       0       0       0
       0       0       0       0       0       0       0       0       0       0
       0       0       0       0       0       0       0       0       0       0
       0       0       0       0       0       0       0       0       0       0
       0       0       0       0       0       0       0       0       0       0
       0       0       0       0       0       0       0       0       0       0
       0       0       0       0       0       0       0       0       0       0
       0       0       0       0       0       0       0       0       0       0
       0       0       0       0       0       0       0       0       0       0
       0       0       0       0       0       0       0       0       0       0
       0       0       0       0       0       0       0       0       0       0
       0       0       0       0       0       0       0       0       0       0
       0       0       0       0       0       0       0       0       0       0
       0       0       0       0       0       0       0       0       0       0
       0       0       0       0       0       0       0       0       0       0
       0       0       0       0       0       0       0       0       0       0
       0       0       0       0       0       0       0       0       0       0
       0       0       0       0       0       0       0       0       0       0
       0       0       0       0       0       0       0       0       0       0
       0       0       0       0       0       0       0       0       0       0
       0       0       0       0       0       0       0       0       0       0
       0       0       0       0       0       0       0       0       0       0
       0       0       0       0       0       0       0       0       0       0
       0       0       0       0       0       0       0       0       0       0
       0       0       0       0       0       0       0       0       0       0
       0       0       0       0       0       0       0       0       0       0
       0       0       0       0       0       0       0       0       0       0
       0       0       0       0       0       0       0       0       0       0
       0       0       0       0       0       0       0       0       0       0
       0       0       0       0       0       0       0       0       0       0
       0       0       0       0       0       0       0       0       0       0
       0       0       0       0       0       0       0       0       0       0
       0       0       0       0       0       0       0       0       0       0
       0       0       0       0       0       0       0       0       0       0
       0       0       0       0       0       0       0       0       0       0
       0       0       0       0       0       0       0       0       0       0
       0       0       0       0       0       0       0       0       0       0
       0       0       0       0       0       0       0       0       0       0
       0       0       0       0       0       0       0       0       0       0
       0       0       0       0       0       0       0       0       0       0
       0       0       0       0       0       0       0       0       0       0
       0       0       0       0       0       0       0       0       0       0
       0       0       0       0       0       0       0       0       0       0
       0       0       0       0       0       0       0       0       0       0
       0       0       0       0       0       0       0       0       0       0
       0       0       0       0       0       0       0       0       0       0
       0       0       0       0       0       0       0       0       0       0
       0       0       0       0       0       0       0       0       0       0
       0       0       0       0       0       0       0       0       0       0
       0       0       0       0       0       0       0       0       0       0
       0       0       0       0       0       0       0       0       0       0
       0       0       0       0       0       0       0       0       0       0
       0       0       0       0       0       0       0       0       0       0
       0       0       0       0       0       0       0       0       0       0
       0       0       0       0       0       0       0       0       0       0
       0       0       0       0       0       0       0       0       0       0
       0       0       0       0       0       0       0       0       0       0
       0       0       0       0       0       0       0       0       0       0
       0       0       0       0       0       0       0       0       0       0
       0       0       0       0       0       0       0       0       0       0
       0       0       0       0       0       0       0       0       0       0
       0       0       0       0       0       0       0       0       0       0
       0       0       0       0       0       0       0       0       0       0
       0       0       0       0       0       0       0       0       0       0
       0       0       0       0       0       0       0       0       0       0
       0       0       0       0       0       0       0       0       0       0
       0       0       0       0       0       0       0       0       0       0
       0       0       0       0       0       0       0       0       0       0
       0       0       0       0       0       0       0       0       0       0
       0       0       0       0       0       0       0       0       0       0
       0       0       0       0       0       0       0       0       0       0
       0       0       0       0       0       0       0       0       0       0
       0       0       0       0       0       0       0       0       0       0
       0       0       0       0       0       0       0       0       0       0
       0       0       0       0       0       0       0       0       0       0
       0       0       0       0       0       0       0       0       0       0
       0       0       0       0       0       0       0       0       0       0
       0       0       0       0       0       0       0       0       0       0
       0       0       0       0       0       0       0       0       0       0
       0       0       0       0       0       0       0       0       0       0
       0       0       0       0       0       0       0       0       0       0
       0       0       0       0       0       0       0       0       0       0
       0       0       0       0       0       0       0       0       0       0
       0       0       0       0       0       0       0       0       0       0
       0       0       0       0       0       0       0       0       0       0
       0       0       0       0       0       0       0       0       0       0
       0       0       0       0       0       0       0       0       0       0
       0       0       0       0       0       0       0       0       0       0
       0       0       0       0       0       0       0       0       0       0
       0       0       0       0       0       0       0       0       0       0
       0       0       0       0       0       0       0       0       0       0
       0       0       0       0       0       0       0       0       0       0
       0       0       0       0       0       0       0       0       0       0
       0       0       0       0       0       0       0       0       0       0
       0       0       0       0       0       0       0       0       0       0
       0       0       0       0       0       0       0       0       0       0
       0       0       0       0       0       0       0       0       0       0
       0       0       0       0       0       0       0       0       0       0
       0       0       0       0       0       0       0       0       0       0
       0       0       0       0       0       0       0       0       0       0
       0       0       0       0       0       0       0       0       0       0
       0       0       0       0       0       0       0       0       0       0
       0       0       0       0       0       0       0       0       0       0
       0       0       0       0       0       0       0       0       0       0
       0       0       0       0       0       0       0       0       0       0
       0       0       0       0       0       0       0       0       0       0
       0       0       0       0       0       0       0       0       0       0
       0       0       0       0       0       0       0       0       0       0
       0       0       0       0       0       0       0       0       0       0
       0       0       0       0       0       0       0       0       0       0
       0       0       0       0       0       0       0       0       0       0
       0       0       0       0       0       0       0       0       0       0
       0       0       0       0       0       0       0       0       0       0
       0       0       0       0       0       0       0       0       0       0
       0       0       0       0       0       0       0       0       0       0
       0       0       0       0       0       0       0       0       0       0
       0       0       0       0       0       0       0       0       0       0
       0       0       0       0       0       0       0       0       0       0
       0       0       0       0       0       0       0       0       0       0
       0       0       0       0       0       0       0       0       0       0
       0       0       0       0       0       0       0       0       0       0
       0       0       0       0       0       0       0       0       0       0
       0       0       0       0       0       0       0       0       0       0
       0       0       0       0       0       0       0       0       0       0
       0       0       0       0       0       0       0       0       0       0
       0       0       0       0       0       0       0       0       0       0
       0       0       0       0       0       0       0       0       0       0
       0       0       0       0       0       0       0       0       0       0
       0       0       0       0       0       0       0       0       0       0
       0       0       0       0       0       0       0       0       0       0
       0       0       0       0       0       0       0       0       0       0
       0       0       0       0       0       0       0       0       0       0
       0       0       0       0       0       0       0       0       0       0
       0       0       0       0       0       0       0       0       0       0
       0       0       0       0       0       0       0       0       0       0
       0       0       0       0       0       0       0       0       0       0
       0       0       0       0       0       0       0       0       0       0
       0       0       0       0       0       0       0       0       0       0
       0       0       0       0       0       0       0       0       0       0
       0       0       0       0       0       0       0       0       0       0
       0       0       0       0       0       0       0       0       0       0
       0       0       0       0       0       0       0       0       0       0
       0       0       0       0       0       0       0       0       0       0
       0       0       0       0       0       0       0       0       0       0
       0       0       0       0       0       0       0       0       0       0
       0       0       0       0       0       0       0       0       0       0
       0       0       0       0       0       0       0       0       0       0
       0       0       0       0       0       0       0       0       0       0
       0       0       0       0       0       0       0       0       0       0
       0       0       0       0       0       0       0       0       0       0
       0       0       0       0       0       0       0       0       0       0
       0       0       0       0       0       0       0       0       0       0
       0       0       0       0       0       0       0       0       0       0
       0       0       0       0       0       0       0       0       0       0
       0       0       0       0       0       0       0       0       0       0
       0       0       0       0       0       0       0       0       0       0
       0       0       0       0       0       0       0       0       0       0
       0       0       0       0       0       0       0       0       0       0
       0       0       0       0       0       0       0       0       0       0
       0       0       0       0       0       0       0       0       0       0
       0       0       0       0       0       0       0       0       0       0
       0       0       0       0       0       0       0       0       0       0
       0       0       0       0       0       0       0       0       0       0
       0       0       0       0       0       0       0       0       0       0
       0       0       0       0       0       0       0       0       0       0
       0       0       0       0       0       0       0       0       0       0
       0       0       0       0       0       0       0       0       0       0
       0       0       0       0       0       0       0       0       0       0
       0       0       0       0       0       0       0       0       0       0
       0       0       0       0       0       0       0       0       0       0
       0       0       0       0       0       0       0       0       0       0
       0       0       0       0       0       0       0       0       0       0
       0       0       0       0       0       0       0       0       0       0
       0       0       0       0       0       0       0       0       0       0
       0       0       0       0       0       0       0       0       0       0
       0       0       0       0       0       0       0       0       0       0
       0       0       0       0       0       0       0       0       0       0
       0       0       0       0       0       0       0       0       0       0
       0       0       0       0       0       0       0       0       0       0
       0       0       0       0       0       0       0       0       0       0
       0       0       0       0       0       0       0       0       0       0
       0       0       0       0       0       0       0       0       0       0
       0       0       0       0       0       0       0       0       0       0
       0       0       0       0       0       0       0       0       0       0
       0       0       0       0       0       0       0       0       0       0
       0       0       0       0       0       0       0       0       0       0
       0       0       0       0       0       0       0       0       0       0
       0       0       0       0       0       0       0       0       0       0
       0       0       0       0       0       0       0       0       0       0
       0       0       0       0       0       0       0       0       0       0
       0       0       0       0       0       0       0       0       0       0
       0       0       0       0       0       0       0       0       0       0
       0       0       0       0       0       0       0       0       0       0
       0       0       0       0       0       0       0       0       0       0
       0       0       0       0       0       0       0       0       0       0
       0       0       0       0       0       0       0       0       0       0
       0       0       0       0       0       0       0       0       0       0
       0       0       0       0       0       0       0       0       0       0
       0       0       0       0       0       0       0       0       0       0
       0       0       0       0       0       0       0       0       0       0
       0       0       0       0       0       0       0       0       0       0
       0       0       0       0       0       0       0       0       0       0
       0       0       0       0       0       0       0       0       0       0
       0       0       0       0       0       0       0       0       0       0
       0       0       0       0       0       0       0       0       0       0
       0       0       0       0       0       0       0       0       0       0
       0       0       0       0       0       0       0       0       0       0
       0       0       0       0       0       0       0       0       0       0
       0       0       0       0       0       0       0       0       0       0
       0       0       0       0       0       0       0       0       0       0
       0       0       0       0       0       0       0       0       0       0
       0       0       0       0       0       0       0       0       0       0
       0       0       0       0       0       0       0       0       0       0
       0       0       0       0       0       0       0       0       0       0
       0       0       0       0       0       0       0       0       0       0
       0       0       0       0       0       0       0       0       0       0
       0       0       0       0       0       0       0       0       0       0
       0       0       0       0       0       0       0       0       0       0
       0       0       0       0       0       0       0       0       0       0
       0       0       0       0       0       0       0       0       0       0
       0       0       0       0       0       0       0       0       0       0
       0       0       0       0       0       0       0       0       0       0
       0       0       0       0       0       0       0       0       0       0
       0       0       0       0       0       0       0       0       0       0
       0       0       0       0       0       0       0       0       0       0
       0       0       0       0       0       0       0       0       0       0
       0       0       0       0       0       0       0       0       0       0
       0       0       0       0       0       0       0       0       0       0
       0       0       0       0       0       0       0       0       0       0
       0       0       0       0       0       0       0       0       0       0
       0       0       0       0       0       0       0       0       0       0
       0       0       0       0       0       0       0       0       0       0
       0       0       0       0       0       0       0       0       0       0
       0       0       0       0       0       0       0       0       0       0
       0       0       0       0       0       0       0       0       0       0
       0       0       0       0       0       0       0       0       0       0
       0       0       0       0       0       0       0       0       0       0
       0       0       0       0       0       0       0       0       0       0
       0       0       0       0       0       0       0       0       0       0
       0       0       0       0       0       0       0       0       0       0
       0       0       0       0       0       0       0       0       0       0
       0       0       0       0       0       0       0       0       0       0
       0       0       0       0       0       0       0       0       0       0
       0       0       0       0       0       0       0       0       0       0
       0       0       0       0       0       0       0       0       0       0
       0       0       0       0       0       0       0       0       0       0
       0       0       0       0       0       0       0       0       0       0
       0       0       0       0       0       0       0       0       0       0
       0       0       0       0       0       0       0       0       0       0
       0       0       0       0       0       0       0       0       0       0
       0       0       0       0       0       0       0       0       0       0
       0       0       0       0       0       0       0       0       0       0
       0       0       0       0       0       0       0       0       0       0
       0       0       0       0       0       0       0       0       0       0
       0       0       0       0       0       0       0       0       0       0
       0       0       0       0       0       0       0       0       0       0
       0       0       0       0       0       0       0       0       0       0
       0       0       0       0       0       0       0       0       0       0
       0       0       0       0       0       0       0       0       0       0
       0       0       0       0       0       0       0       0       0       0
       0       0       0       0       0       0       0       0       0       0
       0       0       0       0       0       0       0       0       0       0
       0       0       0       0       0       0       0       0       0       0
       0       0       0       0       0       0       0       0       0       0
       0       0       0       0       0       0       0       0       0       0
       0       0       0       0       0       0       0       0       0       0
       0       0       0       0       0       0       0       0       0       0
       0       0       0       0       0       0       0       0       0       0
       0       0       0       0       0       0       0       0       0       0
       0       0       0       0       0       0       0       0       0       0
       0       0       0       0       0       0       0       0       0       0
       0       0       0       0       0       0       0       0       0       0
       0       0       0       0       0       0       0       0       0       0
       0       0       0       0       0       0       0       0       0       0
       0       0       0       0       0       0       0       0       0       0
       0       0       0       0       0       0       0       0       0       0
       0       0       0       0       0       0       0       0       0       0
       0       0       0       0       0       0       0       0       0       0
       0       0       0       0       0       0       0       0       0       0
       0       0       0       0       0       0       0       0       0       0
       0       0       0       0       0       0       0       0       0       0
       0       0       0       0       0       0       0       0       0       0
       0       0       0       0       0       0       0       0       0       0
       0       0       0       0       0       0       0       0       0       0
       0       0       0       0       0       0       0       0       0       0
       0       0       0       0       0       0       0       0       0       0
       0       0       0       0       0       0       0       0       0       0
       0       0       0       0       0       0       0       0       0       0
       0       0       0       0       0       0       0       0       0       0
       0       0       0       0       0       0       0       0       0       0
       0       0       0       0       0       0       0       0       0       0
       0       0       0       0       0       0       0       0       0       0
       0       0       0       0       0       0       0       0       0       0
       0       0       0       0       0       0       0       0       0       0
       0       0       0       0       0       0       0       0       0       0
       0       0       0       0       0       0       0       0       0       0
       0       0       0       0       0       0       0       0       0       0
       0       0       0       0       0       0       0       0       0       0
       0       0       0       0       0       0       0       0       0       0
       0       0       0       0       0       0       0       0       0       0
       0       0       0       0       0       0       0       0       0       0
       0       0       0       0       0       0       0       0       0       0
       0       0       0       0       0       0       0       0       0       0
       0       0       0       0       0       0       0       0       0       0
       0       0       0       0       0       0       0       0       0       0
       0       0       0       0       0       0       0       0       0       0
       0       0       0       0       0       0       0       0       0       0
       0       0       0       0       0       0       0       0       0       0
       0       0       0       0       0       0       0       0       0       0
       0       0       0       0       0       0       0       0       0       0
       0       0       0       0       0       0       0       0       0       0
       0       0       0       0       0       0       0       0       0       0
       0       0       0       0       0       0       0       0       0       0
       0       0       0       0       0       0       0       0       0       0
       0       0       0       0       0       0       0       0       0       0
       0       0       0       0       0       0       0       0       0       0
       0       0       0       0       0       0       0       0       0       0
       0       0       0       0       0       0       0       0       0       0
       0       0       0       0       0       0       0       0       0       0
       0       0       0       0       0       0       0       0       0       0
       0       0       0       0       0       0       0       0       0       0
       0       0       0       0       0       0       0       0       0       0
       0       0       0       0       0       0       0       0       0       0
       0       0       0       0       0       0       0       0       0       0
       0       0       0       0       0       0       0       0       0       0
       0       0       0       0       0       0       0       0       0       0
       0       0       0       0       0       0       0       0       0       0
       0       0       0       0       0       0       0       0       0       0
       0       0       0       0       0       0       0       0       0       0
       0       0       0       0       0       0       0       0       0       0
       0       0       0       0       0       0       0       0       0       0
       0       0       0       0       0       0       0       0       0       0
       0       0       0       0       0       0       0       0       0       0
       0       0       0       0       0       0       0       0       0       0
       0       0       0       0       0       0       0       0       0       0
       0       0       0       0       0       0       0       0       0       0
       0       0       0       0       0       0       0       0       0       0
       0       0       0       0       0       0       0       0       0       0
       0       0       0       0       0       0       0       0       0       0
       0       0       0       0       0       0       0       0       0       0
       0       0       0       0       0       0       0       0       0       0
       0       0       0       0       0       0       0       0       0       0
       0       0       0       0       0       0       0       0       0       0
       0       0       0       0       0       0       0       0       0       0
       0       0       0       0       0       0       0       0       0       0
       0       0       0       0       0       0       0       0       0       0
       0       0       0       0       0       0       0       0       0       0
       0       0       0       0       0       0       0       0       0       0
       0       0       0       0       0       0       0       0       0       0
       0       0       0       0       0       0       0       0       0       0
       0       0       0       0       0       0       0       0       0       0
       0       0       0       0       0       0       0       0       0       0
       0       0       0       0       0       0       0       0       0       0
       0       0       0       0       0       0       0       0       0       0
       0       0       0       0       0       0       0       0       0       0
       0       0       0       0       0       0       0       0       0       0
       0       0       0       0       0       0       0       0       0       0
       0       0       0       0       0       0       0       0       0       0
       0       0       0       0       0       0       0       0       0       0
       0       0       0       0       0       0       0       0       0       0
       0       0       0       0       0       0       0       0       0       0
       0       0       0       0       0       0       0       0       0       0
       0       0       0       0       0       0       0       0       0       0
       0       0       0       0       0       0       0       0       0       0
       0       0       0       0       0       0       0       0       0       0
       0       0       0       0       0       0       0       0       0       0
       0       0       0       0       0       0       0       0       0       0
       0       0       0       0       0       0       0       0       0       0
       0       0       0       0       0       0       0       0       0       0
       0       0       0       0       0       0       0       0       0       0
       0       0       0       0       0       0       0       0       0       0
       0       0       0       0       0       0       0       0       0       0
       0       0       0       0       0       0       0       0       0       0
       0       0       0       0       0       0       0       0       0       0
       0       0       0       0       0       0       0       0       0       0
       0       0       0       0       0       0       0       0       0       0
       0       0       0       0       0       0       0       0       0       0
       0       0       0       0       0       0       0       0       0       0
       0       0       0       0       0       0       0       0       0       0
       0       0       0       0       0       0       0       0       0       0
       0       0       0       0       0       0       0       0       0       0
       0       0       0       0       0       0       0       0       0       0
       0       0       0       0       0       0       0       0       0       0
       0       0       0       0       0       0       0       0       0       0
       0       0       0       0       0       0       0       0       0       0
       0       0       0       0       0       0       0       0       0       0
       0       0       0       0       0       0       0       0       0       0
       0       0       0       0       0       0       0       0       0       0
       0       0       0       0       0       0       0       0       0       0
       0       0       0       0       0       0       0       0       0       0
       0       0       0       0       0       0       0       0       0       0
       0       0       0       0       0       0       0       0       0       0
       0       0       0       0       0       0       0       0       0       0
       0       0       0       0       0       0       0       0       0       0
       0       0       0       0       0       0       0       0       0       0
       0       0       0       0       0       0       0       0       0       0
       0       0       0       0       0       0       0       0       0       0
       0       0       0       0       0       0       0       0       0       0
       0       0       0       0       0       0       0       0       0       0
       0       0       0       0       0       0       0       0       0       0
       0       0       0       0       0       0       0       0       0       0
       0       0       0       0       0       0       0       0       0       0
       0       0       0       0       0       0       0       0       0       0
       0       0       0       0       0       0       0       0       0       0
       0       0       0       0       0       0       0       0       0       0
       0       0       0       0       0       0       0       0       0       0
       0       0       0       0       0       0       0       0       0       0
       0       0       0       0       0       0       0       0       0       0
       0       0       0       0       0       0       0       0       0       0
       0       0       0       0       0       0       0       0       0       0
       0       0       0       0       0       0       0       0       0       0
       0       0       0       0       0       0       0       0       0       0
       0       0       0       0       0       0       0       0       0       0
       0       0       0       0       0       0       0       0       0       0
       0       0       0       0       0       0       0       0       0       0
       0       0       0       0       0       0       0       0       0       0
       0       0       0       0       0       0       0       0       0       0
       0       0       0       0       0       0       0       0       0       0
       0       0       0       0       0       0       0       0       0       0
       0       0       0       0       0       0       0       0       0       0
       0       0       0       0       0       0       0       0       0       0
       0       0       0       0       0       0       0       0       0       0
       0       0       0       0       0       0       0       0       0       0
       0       0       0       0       0       0       0       0       0       0
       0       0       0       0       0       0       0       0       0       0
       0       0       0       0       0       0       0       0       0       0
       0       0       0       0       0       0       0       0       0       0
       0       0       0       0       0       0       0       0       0       0
       0       0       0       0       0       0       0       0       0       0
       0       0       0       0       0       0       0       0       0       0
       0       0       0       0       0       0       0       0       0       0
       0       0       0       0       0       0       0       0       0       0
       0       0       0       0       0       0       0       0       0       0
       0       0       0       0       0       0       0       0       0       0
       0       0       0       0       0       0       0       0       0       0
       0       0       0       0       0       0       0       0       0       0
       0       0       0       0       0       0       0       0       0       0
       0       0       0       0       0       0       0       0       0       0
       0       0       0       0       0       0       0       0       0       0
       0       0       0       0       0       0       0       0       0       0
       0       0       0       0       0       0       0       0       0       0
       0       0       0       0       0       0       0       0       0       0
       0       0       0       0       0       0       0       0       0       0
       0       0       0       0       0       0       0       0       0       0
       0       0       0       0       0       0       0       0       0       0
       0       0       0       0       0       0       0       0       0       0
       0       0       0       0       0       0       0       0       0       0
       0       0       0       0       0       0       0       0       0       0
       0       0       0       0       0       0       0       0       0       0
       0       0       0       0       0       0       0       0       0       0
       0       0       0       0       0       0       0       0       0       0
       0       0       0       0       0       0       0       0       0       0
       0       0       0       0       0       0       0       0       0       0
       0       0       0       0       0       0       0       0       0       0
       0       0       0       0       0       0       0       0       0       0
       0       0       0       0       0       0       0       0       0       0
       0       0       0       0       0       0       0       0       0       0
       0       0       0       0       0       0       0       0       0       0
       0       0       0       0       0       0       0       0       0       0
       0       0       0       0       0       0       0       0       0       0
       0       0       0       0       0       0       0       0       0       0
       0       0       0       0       0       0       0       0       0       0
       0       0       0       0       0       0       0       0       0       0
       0       0       0       0       0       0       0       0       0       0
       0       0       0       0       0       0       0       0       0       0
       0       0       0       0       0       0       0       0       0       0
       0       0       0       0       0       0       0       0       0       0
       0       0       0       0       0       0       0       0       0       0
       0       0       0       0       0       0       0       0       0       0
       0       0       0       0       0       0       0       0       0       0
       0       0       0       0       0       0       0       0       0       0
       0       0       0       0       0       0       0       0       0       0
       0       0       0       0       0       0       0       0       0       0
       0       0       0       0       0       0       0       0       0       0
       0       0       0       0       0       0       0       0       0       0
       0       0       0       0       0       0       0       0       0       0
       0       0       0       0       0       0       0       0       0       0
       0       0       0       0       0       0       0       0       0       0
       0       0       0       0       0       0       0       0       0       0
       0       0       0       0       0       0       0       0       0       0
       0       0       0       0       0       0       0       0       0       0
       0       0       0       0       0       0       0       0       0       0
       0       0       0       0       0       0       0       0       0       0
       0       0       0       0       0       0       0       0       0       0
       0       0       0       0       0       0       0       0       0       0
       0       0       0       0       0       0       0       0       0       0
       0       0       0       0       0       0       0       0       0       0
       0       0       0       0       0       0       0       0       0       0
       0       0       0       0       0       0       0       0       0       0
       0       0       0       0       0       0       0       0       0       0
       0       0       0       0       0       0       0       0       0       0
       0       0       0       0       0       0       0       0       0       0
       0       0       0       0       0       0       0       0       0       0
       0       0       0       0       0       0       0       0       0       0
       0       0       0       0       0       0       0       0       0       0
       0       0       0       0       0       0       0       0       0       0
       0       0       0       0       0       0       0       0       0       0
       0       0       0       0       0       0       0       0       0       0
       0       0       0       0       0       0       0       0       0       0
       0       0       0       0       0       0       0       0       0       0
       0       0       0       0       0       0       0       0       0       0
       0       0       0       0       0       0       0       0       0       0
       0       0       0       0       0       0       0       0       0       0
       0       0       0       0       0       0       0       0       0       0
       0       0       0       0       0       0       0       0       0       0
       0       0       0       0       0       0       0       0       0       0
       0       0       0       0       0       0       0       0       0       0
       0       0       0       0       0       0       0       0       0       0
       0       0       0       0       0       0       0       0       0       0
       0       0       0       0       0       0       0       0       0       0
       0       0       0       0       0       0       0       0       0       0
       0       0       0       0       0       0       0       0       0       0
       0       0       0       0       0       0       0       0       0       0
       0       0       0       0       0       0       0       0       0       0
       0       0       0       0       0       0       0       0       0       0
       0       0       0       0       0       0       0       0       0       0
       0       0       0       0       0       0       0       0       0       0
       0       0       0       0       0       0       0       0       0       0
       0       0       0       0       0       0       0       0       0       0
       0       0       0       0       0       0       0       0       0       0
       0       0       0       0       0       0       0       0       0       0
       0       0       0       0       0       0       0       0       0       0
       0       0       0       0       0       0       0       0       0       0
       0       0       0       0       0       0       0       0       0       0
       0       0       0       0       0       0       0       0       0       0
       0       0       0       0       0       0       0       0       0       0
       0       0       0       0       0       0       0       0       0       0
       0       0       0       0       0       0       0       0       0       0
       0       0       0       0       0       0       0       0       0       0
       0       0       0       0       0       0       0       0       0       0
       0       0       0       0       0       0       0       0       0       0
       0       0       0       0       0       0       0       0       0       0
       0       0       0       0       0       0       0       0       0       0
       0       0       0       0       0       0       0       0       0       0
       0       0       0       0       0       0       0       0       0       0
       0       0       0       0       0       0       0       0       0       0
       0       0       0       0       0       0       0       0       0       0
       0       0       0       0       0       0       0       0       0       0
       0       0       0       0       0       0       0       0       0       0
       0       0       0       0       0       0       0       0       0       0
       0       0       0       0       0       0       0       0       0       0
       0       0       0       0       0       0       0       0       0       0
       0       0       0       0       0       0       0       0       0       0
       0       0       0       0       0       0       0       0       0       0
       0       0       0       0       0       0       0       0       0       0
       0       0       0       0       0       0       0       0       0       0
       0       0       0       0       0       0       0       0       0       0
       0       0       0       0       0       0       0       0       0       0
       0       0       0       0       0       0       0       0       0       0
       0       0       0       0       0       0       0       0       0       0
       0       0       0       0       0       0       0       0       0       0
       0       0       0       0       0       0       0       0       0       0
       0       0       0       0       0       0       0       0       0       0
       0       0       0       0       0       0       0       0       0       0
       0       0       0       0       0       0       0       0       0       0
       0       0       0       0       0       0       0       0       0       0
       0       0       0       0       0       0       0       0       0       0
       0       0       0       0       0       0       0       0       0       0
       0       0       0       0       0       0       0       0       0       0
       0       0       0       0       0       0       0       0       0       0
       0       0       0       0       0       0       0       0       0       0
       0       0       0       0       0       0       0       0       0       0
       0       0       0       0       0       0       0       0       0       0
       0       0       0       0       0       0       0       0       0       0
       0       0       0       0       0       0       0       0       0       0
       0       0       0       0       0       0       0       0       0       0
       0       0       0       0       0       0       0       0       0       0
       0       0       0       0       0       0       0       0       0       0
       0       0       0       0       0       0       0       0       0       0
       0       0       0       0       0       0       0       0       0       0
       0       0       0       0       0       0       0       0       0       0
       0       0       0       0       0       0       0       0       0       0
       0       0       0       0       0       0       0       0       0       0
       0       0       0       0       0       0       0       0       0       0
       0       0       0       0       0       0       0       0       0       0
       0       0       0       0       0       0       0       0       0       0
       0       0       0       0       0       0       0       0       0       0
       0       0       0       0       0       0       0       0       0       0
       0       0       0       0       0       0       0       0       0       0
       0       0       0       0       0       0       0       0       0       0
       0       0       0       0       0       0       0       0       0       0
       0       0       0       0       0       0       0       0       0       0
       0       0       0       0       0       0       0       0       0       0
       0       0       0       0       0       0       0       0       0       0
       0       0       0       0       0       0       0       0       0       0
       0       0       0       0       0       0       0       0       0       0
       0       0       0       0       0       0       0       0       0       0
       0       0       0       0       0       0       0       0       0       0
       0       0       0       0       0       0       0       0       0       0
       0       0       0       0       0       0       0       0       0       0
       0       0       0       0       0       0       0       0       0       0
       0       0       0       0       0       0       0       0       0       0
       0       0       0       0       0       0       0       0       0       0
       0       0       0       0       0       0       0       0       0       0
       0       0       0       0       0       0       0       0       0       0
       0       0       0       0       0       0       0       0       0       0
       0       0       0       0       0       0       0       0       0       0
       0       0       0       0       0       0       0       0       0       0
       0       0       0       0       0       0       0       0       0       0
       0       0       0       0       0       0       0       0       0       0
       0       0       0       0       0       0       0       0       0       0
       0       0       0       0       0       0       0       0       0       0
       0       0       0       0       0       0       0       0       0       0
       0       0       0       0       0       0       0       0       0       0
       0       0       0       0       0       0       0       0       0       0
       0       0       0       0       0       0       0       0       0       0
       0       0       0       0       0       0       0       0       0       0
       0       0       0       0       0       0       0       0       0       0
       0       0       0       0       0       0       0       0       0       0
       0       0       0       0       0       0       0       0       0       0
       0       0       0       0       0       0       0       0       0       0
       0       0       0       0       0       0       0       0       0       0
       0       0       0       0       0       0       0       0       0       0
       0       0       0       0       0       0       0       0       0       0
       0       0       0       0       0       0       0       0       0       0
       0       0       0       0       0       0       0       0       0       0
       0       0       0       0       0       0       0       0       0       0
       0       0       0       0       0       0       0       0       0       0
       0       0       0       0       0       0       0       0       0       0
       0       0       0       0       0       0       0       0       0       0
       0       0       0       0       0       0       0       0       0       0
       0       0       0       0       0       0       0       0       0       0
       0       0       0       0       0       0       0       0       0       0
       0       0       0       0       0       0       0       0       0       0
       0       0       0       0       0       0       0       0       0       0
       0       0       0       0       0       0       0       0       0       0
       0       0       0       0       0       0       0       0       0       0
       0       0       0       0       0       0       0       0       0       0
       0       0       0       0       0       0       0       0       0       0
       0       0       0       0       0       0       0       0       0       0
       0       0       0       0       0       0       0       0       0       0
       0       0       0       0       0       0       0       0       0       0
       0       0       0       0       0       0       0       0       0       0
       0       0       0       0       0       0       0       0       0       0
       0       0       0       0       0       0       0       0       0       0
       0       0       0       0       0       0       0       0       0       0
       0       0       0       0       0       0       0       0       0       0
       0       0       0       0       0       0       0       0       0       0
       0       0       0       0       0       0       0       0       0       0
       0       0       0       0       0       0       0       0       0       0
       0       0       0       0       0       0       0       0       0       0
       0       0       0       0       0       0       0       0       0       0
       0       0       0       0       0       0       0       0       0       0
       0       0       0       0       0       0       0       0       0       0
       0       0       0       0       0       0       0       0       0       0
       0       0       0       0       0       0       0       0       0       0
       0       0       0       0       0       0       0       0       0       0
       0       0       0       0       0       0       0       0       0       0
       0       0       0       0       0       0       0       0       0       0
       0       0       0       0       0       0       0       0       0       0
       0       0       0       0       0       0       0       0       0       0
       0       0       0       0       0       0       0       0       0       0
       0       0       0       0       0       0       0       0       0       0
       0       0       0       0       0       0       0       0       0       0
       0       0       0       0       0       0       0       0       0       0
       0       0       0       0       0       0       0       0       0       0
       0       0       0       0       0       0       0       0       0       0
       0       0       0       0       0       0       0       0       0       0
       0       0       0       0       0       0       0       0       0       0
       0       0       0       0       0       0       0       0       0       0
       0       0       0       0       0       0       0       0       0       0
       0       0       0       0       0       0       0       0       0       0
       0       0       0       0       0       0       0       0       0       0
       0       0       0       0       0       0       0       0       0       0
       0       0       0       0       0       0       0       0       0       0
       0       0       0       0       0       0       0       0       0       0
       0       0       0       0       0       0       0       0       0       0
       0       0       0       0       0       0       0       0       0       0
       0       0       0       0       0       0       0       0       0       0
       0       0       0       0       0       0       0       0       0       0
       0       0       0       0       0       0       0       0       0       0
       0       0       0       0       0       0       0       0       0       0
       0       0       0       0       0       0       0       0       0       0
       0       0       0       0       0       0       0       0       0       0
       0       0       0       0       0       0       0       0       0       0
       0       0       0       0       0       0       0       0       0       0
       0       0       0       0       0
%FLAG RADIUS_SET                                                                
%FORMAT(1a80)                                                                   
modified Bondi radii (mbondi)                                                   
%FLAG RADII                                                                     
%FORMAT(5E16.8)                                                                 
  1.50000000E+00  1.70000000E+00  1.50000000E+00  1.70000000E+00  1.50000000E+00
  1.70000000E+00  1.50000000E+00  1.70000000E+00  1.50000000E+00  1.70000000E+00
  1.50000000E+00  1.70000000E+00  1.55000000E+00  1.70000000E+00  1.55000000E+00
  1.70000000E+00  1.70000000E+00  1.50000000E+00  1.55000000E+00  1.70000000E+00
  1.70000000E+00  1.55000000E+00  1.70000000E+00  1.55000000E+00  1.30000000E+00
  1.30000000E+00  1.30000000E+00  1.30000000E+00  1.30000000E+00  1.30000000E+00
  1.30000000E+00  1.50000000E+00  8.00000000E-01  8.00000000E-01  1.50000000E+00
  1.50000000E+00  8.00000000E-01  8.00000000E-01  1.50000000E+00  1.50000000E+00
  8.00000000E-01  8.00000000E-01  1.50000000E+00  1.50000000E+00  8.00000000E-01
  8.00000000E-01  1.50000000E+00  1.50000000E+00  8.00000000E-01  8.00000000E-01
  1.50000000E+00  1.50000000E+00  8.00000000E-01  8.00000000E-01  1.50000000E+00
  1.50000000E+00  8.00000000E-01  8.00000000E-01  1.50000000E+00  1.50000000E+00
  8.00000000E-01  8.00000000E-01  1.50000000E+00  1.50000000E+00  8.00000000E-01
  8.00000000E-01  1.50000000E+00  1.50000000E+00  8.00000000E-01  8.00000000E-01
  1.50000000E+00  1.50000000E+00  8.00000000E-01  8.00000000E-01  1.50000000E+00
  1.50000000E+00  8.00000000E-01  8.00000000E-01  1.50000000E+00  1.50000000E+00
  8.00000000E-01  8.00000000E-01  1.50000000E+00  1.50000000E+00  8.00000000E-01
  8.00000000E-01  1.50000000E+00  1.50000000E+00  8.00000000E-01  8.00000000E-01
  1.50000000E+00  1.50000000E+00  8.00000000E-01  8.00000000E-01  1.50000000E+00
  1.50000000E+00  8.00000000E-01  8.00000000E-01  1.50000000E+00  1.50000000E+00
  8.00000000E-01  8.00000000E-01  1.50000000E+00  1.50000000E+00  8.00000000E-01
  8.00000000E-01  1.50000000E+00  1.50000000E+00  8.00000000E-01  8.00000000E-01
  1.50000000E+00  1.50000000E+00  8.00000000E-01  8.00000000E-01  1.50000000E+00
  1.50000000E+00  8.00000000E-01  8.00000000E-01  1.50000000E+00  1.50000000E+00
  8.00000000E-01  8.00000000E-01  1.50000000E+00  1.50000000E+00  8.00000000E-01
  8.00000000E-01  1.50000000E+00  1.50000000E+00  8.00000000E-01  8.00000000E-01
  1.50000000E+00  1.50000000E+00  8.00000000E-01  8.00000000E-01  1.50000000E+00
  1.50000000E+00  8.00000000E-01  8.00000000E-01  1.50000000E+00  1.50000000E+00
  8.00000000E-01  8.00000000E-01  1.50000000E+00  1.50000000E+00  8.00000000E-01
  8.00000000E-01  1.50000000E+00  1.50000000E+00  8.00000000E-01  8.00000000E-01
  1.50000000E+00  1.50000000E+00  8.00000000E-01  8.00000000E-01  1.50000000E+00
  1.50000000E+00  8.00000000E-01  8.00000000E-01  1.50000000E+00  1.50000000E+00
  8.00000000E-01  8.00000000E-01  1.50000000E+00  1.50000000E+00  8.00000000E-01
  8.00000000E-01  1.50000000E+00  1.50000000E+00  8.00000000E-01  8.00000000E-01
  1.50000000E+00  1.50000000E+00  8.00000000E-01  8.00000000E-01  1.50000000E+00
  1.50000000E+00  8.00000000E-01  8.00000000E-01  1.50000000E+00  1.50000000E+00
  8.00000000E-01  8.00000000E-01  1.50000000E+00  1.50000000E+00  8.00000000E-01
  8.00000000E-01  1.50000000E+00  1.50000000E+00  8.00000000E-01  8.00000000E-01
  1.50000000E+00  1.50000000E+00  8.00000000E-01  8.00000000E-01  1.50000000E+00
  1.50000000E+00  8.00000000E-01  8.00000000E-01  1.50000000E+00  1.50000000E+00
  8.00000000E-01  8.00000000E-01  1.50000000E+00  1.50000000E+00  8.00000000E-01
  8.00000000E-01  1.50000000E+00  1.50000000E+00  8.00000000E-01  8.00000000E-01
  1.50000000E+00  1.50000000E+00  8.00000000E-01  8.00000000E-01  1.50000000E+00
  1.50000000E+00  8.00000000E-01  8.00000000E-01  1.50000000E+00  1.50000000E+00
  8.00000000E-01  8.00000000E-01  1.50000000E+00  1.50000000E+00  8.00000000E-01
  8.00000000E-01  1.50000000E+00  1.50000000E+00  8.00000000E-01  8.00000000E-01
  1.50000000E+00  1.50000000E+00  8.00000000E-01  8.00000000E-01  1.50000000E+00
  1.50000000E+00  8.00000000E-01  8.00000000E-01  1.50000000E+00  1.50000000E+00
  8.00000000E-01  8.00000000E-01  1.50000000E+00  1.50000000E+00  8.00000000E-01
  8.00000000E-01  1.50000000E+00  1.50000000E+00  8.00000000E-01  8.00000000E-01
  1.50000000E+00  1.50000000E+00  8.00000000E-01  8.00000000E-01  1.50000000E+00
  1.50000000E+00  8.00000000E-01  8.00000000E-01  1.50000000E+00  1.50000000E+00
  8.00000000E-01  8.00000000E-01  1.50000000E+00  1.50000000E+00  8.00000000E-01
  8.00000000E-01  1.50000000E+00  1.50000000E+00  8.00000000E-01  8.00000000E-01
  1.50000000E+00  1.50000000E+00  8.00000000E-01  8.00000000E-01  1.50000000E+00
  1.50000000E+00  8.00000000E-01  8.00000000E-01  1.50000000E+00  1.50000000E+00
  8.00000000E-01  8.00000000E-01  1.50000000E+00  1.50000000E+00  8.00000000E-01
  8.00000000E-01  1.50000000E+00  1.50000000E+00  8.00000000E-01  8.00000000E-01
  1.50000000E+00  1.50000000E+00  8.00000000E-01  8.00000000E-01  1.50000000E+00
  1.50000000E+00  8.00000000E-01  8.00000000E-01  1.50000000E+00  1.50000000E+00
  8.00000000E-01  8.00000000E-01  1.50000000E+00  1.50000000E+00  8.00000000E-01
  8.00000000E-01  1.50000000E+00  1.50000000E+00  8.00000000E-01  8.00000000E-01
  1.50000000E+00  1.50000000E+00  8.00000000E-01  8.00000000E-01  1.50000000E+00
  1.50000000E+00  8.00000000E-01  8.00000000E-01  1.50000000E+00  1.50000000E+00
  8.00000000E-01  8.00000000E-01  1.50000000E+00  1.50000000E+00  8.00000000E-01
  8.00000000E-01  1.50000000E+00  1.50000000E+00  8.00000000E-01  8.00000000E-01
  1.50000000E+00  1.50000000E+00  8.00000000E-01  8.00000000E-01  1.50000000E+00
  1.50000000E+00  8.00000000E-01  8.00000000E-01  1.50000000E+00  1.50000000E+00
  8.00000000E-01  8.00000000E-01  1.50000000E+00  1.50000000E+00  8.00000000E-01
  8.00000000E-01  1.50000000E+00  1.50000000E+00  8.00000000E-01  8.00000000E-01
  1.50000000E+00  1.50000000E+00  8.00000000E-01  8.00000000E-01  1.50000000E+00
  1.50000000E+00  8.00000000E-01  8.00000000E-01  1.50000000E+00  1.50000000E+00
  8.00000000E-01  8.00000000E-01  1.50000000E+00  1.50000000E+00  8.00000000E-01
  8.00000000E-01  1.50000000E+00  1.50000000E+00  8.00000000E-01  8.00000000E-01
  1.50000000E+00  1.50000000E+00  8.00000000E-01  8.00000000E-01  1.50000000E+00
  1.50000000E+00  8.00000000E-01  8.00000000E-01  1.50000000E+00  1.50000000E+00
  8.00000000E-01  8.00000000E-01  1.50000000E+00  1.50000000E+00  8.00000000E-01
  8.00000000E-01  1.50000000E+00  1.50000000E+00  8.00000000E-01  8.00000000E-01
  1.50000000E+00  1.50000000E+00  8.00000000E-01  8.00000000E-01  1.50000000E+00
  1.50000000E+00  8.00000000E-01  8.00000000E-01  1.50000000E+00  1.50000000E+00
  8.00000000E-01  8.00000000E-01  1.50000000E+00  1.50000000E+00  8.00000000E-01
  8.00000000E-01  1.50000000E+00  1.50000000E+00  8.00000000E-01  8.00000000E-01
  1.50000000E+00  1.50000000E+00  8.00000000E-01  8.00000000E-01  1.50000000E+00
  1.50000000E+00  8.00000000E-01  8.00000000E-01  1.50000000E+00  1.50000000E+00
  8.00000000E-01  8.00000000E-01  1.50000000E+00  1.50000000E+00  8.00000000E-01
  8.00000000E-01  1.50000000E+00  1.50000000E+00  8.00000000E-01  8.00000000E-01
  1.50000000E+00  1.50000000E+00  8.00000000E-01  8.00000000E-01  1.50000000E+00
  1.50000000E+00  8.00000000E-01  8.00000000E-01  1.50000000E+00  1.50000000E+00
  8.00000000E-01  8.00000000E-01  1.50000000E+00  1.50000000E+00  8.00000000E-01
  8.00000000E-01  1.50000000E+00  1.50000000E+00  8.00000000E-01  8.00000000E-01
  1.50000000E+00  1.50000000E+00  8.00000000E-01  8.00000000E-01  1.50000000E+00
  1.50000000E+00  8.00000000E-01  8.00000000E-01  1.50000000E+00  1.50000000E+00
  8.00000000E-01  8.00000000E-01  1.50000000E+00  1.50000000E+00  8.00000000E-01
  8.00000000E-01  1.50000000E+00  1.50000000E+00  8.00000000E-01  8.00000000E-01
  1.50000000E+00  1.50000000E+00  8.00000000E-01  8.00000000E-01  1.50000000E+00
  1.50000000E+00  8.00000000E-01  8.00000000E-01  1.50000000E+00  1.50000000E+00
  8.00000000E-01  8.00000000E-01  1.50000000E+00  1.50000000E+00  8.00000000E-01
  8.00000000E-01  1.50000000E+00  1.50000000E+00  8.00000000E-01  8.00000000E-01
  1.50000000E+00  1.50000000E+00  8.00000000E-01  8.00000000E-01  1.50000000E+00
  1.50000000E+00  8.00000000E-01  8.00000000E-01  1.50000000E+00  1.50000000E+00
  8.00000000E-01  8.00000000E-01  1.50000000E+00  1.50000000E+00  8.00000000E-01
  8.00000000E-01  1.50000000E+00  1.50000000E+00  8.00000000E-01  8.00000000E-01
  1.50000000E+00  1.50000000E+00  8.00000000E-01  8.00000000E-01  1.50000000E+00
  1.50000000E+00  8.00000000E-01  8.00000000E-01  1.50000000E+00  1.50000000E+00
  8.00000000E-01  8.00000000E-01  1.50000000E+00  1.50000000E+00  8.00000000E-01
  8.00000000E-01  1.50000000E+00  1.50000000E+00  8.00000000E-01  8.00000000E-01
  1.50000000E+00  1.50000000E+00  8.00000000E-01  8.00000000E-01  1.50000000E+00
  1.50000000E+00  8.00000000E-01  8.00000000E-01  1.50000000E+00  1.50000000E+00
  8.00000000E-01  8.00000000E-01  1.50000000E+00  1.50000000E+00  8.00000000E-01
  8.00000000E-01  1.50000000E+00  1.50000000E+00  8.00000000E-01  8.00000000E-01
  1.50000000E+00  1.50000000E+00  8.00000000E-01  8.00000000E-01  1.50000000E+00
  1.50000000E+00  8.00000000E-01  8.00000000E-01  1.50000000E+00  1.50000000E+00
  8.00000000E-01  8.00000000E-01  1.50000000E+00  1.50000000E+00  8.00000000E-01
  8.00000000E-01  1.50000000E+00  1.50000000E+00  8.00000000E-01  8.00000000E-01
  1.50000000E+00  1.50000000E+00  8.00000000E-01  8.00000000E-01  1.50000000E+00
  1.50000000E+00  8.00000000E-01  8.00000000E-01  1.50000000E+00  1.50000000E+00
  8.00000000E-01  8.00000000E-01  1.50000000E+00  1.50000000E+00  8.00000000E-01
  8.00000000E-01  1.50000000E+00  1.50000000E+00  8.00000000E-01  8.00000000E-01
  1.50000000E+00  1.50000000E+00  8.00000000E-01  8.00000000E-01  1.50000000E+00
  1.50000000E+00  8.00000000E-01  8.00000000E-01  1.50000000E+00  1.50000000E+00
  8.00000000E-01  8.00000000E-01  1.50000000E+00  1.50000000E+00  8.00000000E-01
  8.00000000E-01  1.50000000E+00  1.50000000E+00  8.00000000E-01  8.00000000E-01
  1.50000000E+00  1.50000000E+00  8.00000000E-01  8.00000000E-01  1.50000000E+00
  1.50000000E+00  8.00000000E-01  8.00000000E-01  1.50000000E+00  1.50000000E+00
  8.00000000E-01  8.00000000E-01  1.50000000E+00  1.50000000E+00  8.00000000E-01
  8.00000000E-01  1.50000000E+00  1.50000000E+00  8.00000000E-01  8.00000000E-01
  1.50000000E+00  1.50000000E+00  8.00000000E-01  8.00000000E-01  1.50000000E+00
  1.50000000E+00  8.00000000E-01  8.00000000E-01  1.50000000E+00  1.50000000E+00
  8.00000000E-01  8.00000000E-01  1.50000000E+00  1.50000000E+00  8.00000000E-01
  8.00000000E-01  1.50000000E+00  1.50000000E+00  8.00000000E-01  8.00000000E-01
  1.50000000E+00  1.50000000E+00  8.00000000E-01  8.00000000E-01  1.50000000E+00
  1.50000000E+00  8.00000000E-01  8.00000000E-01  1.50000000E+00  1.50000000E+00
  8.00000000E-01  8.00000000E-01  1.50000000E+00  1.50000000E+00  8.00000000E-01
  8.00000000E-01  1.50000000E+00  1.50000000E+00  8.00000000E-01  8.00000000E-01
  1.50000000E+00  1.50000000E+00  8.00000000E-01  8.00000000E-01  1.50000000E+00
  1.50000000E+00  8.00000000E-01  8.00000000E-01  1.50000000E+00  1.50000000E+00
  8.00000000E-01  8.00000000E-01  1.50000000E+00  1.50000000E+00  8.00000000E-01
  8.00000000E-01  1.50000000E+00  1.50000000E+00  8.00000000E-01  8.00000000E-01
  1.50000000E+00  1.50000000E+00  8.00000000E-01  8.00000000E-01  1.50000000E+00
  1.50000000E+00  8.00000000E-01  8.00000000E-01  1.50000000E+00  1.50000000E+00
  8.00000000E-01  8.00000000E-01  1.50000000E+00  1.50000000E+00  8.00000000E-01
  8.00000000E-01  1.50000000E+00  1.50000000E+00  8.00000000E-01  8.00000000E-01
  1.50000000E+00  1.50000000E+00  8.00000000E-01  8.00000000E-01  1.50000000E+00
  1.50000000E+00  8.00000000E-01  8.00000000E-01  1.50000000E+00  1.50000000E+00
  8.00000000E-01  8.00000000E-01  1.50000000E+00  1.50000000E+00  8.00000000E-01
  8.00000000E-01  1.50000000E+00  1.50000000E+00  8.00000000E-01  8.00000000E-01
  1.50000000E+00  1.50000000E+00  8.00000000E-01  8.00000000E-01  1.50000000E+00
  1.50000000E+00  8.00000000E-01  8.00000000E-01  1.50000000E+00  1.50000000E+00
  8.00000000E-01  8.00000000E-01  1.50000000E+00  1.50000000E+00  8.00000000E-01
  8.00000000E-01  1.50000000E+00  1.50000000E+00  8.00000000E-01  8.00000000E-01
  1.50000000E+00  1.50000000E+00  8.00000000E-01  8.00000000E-01  1.50000000E+00
  1.50000000E+00  8.00000000E-01  8.00000000E-01  1.50000000E+00  1.50000000E+00
  8.00000000E-01  8.00000000E-01  1.50000000E+00  1.50000000E+00  8.00000000E-01
  8.00000000E-01  1.50000000E+00  1.50000000E+00  8.00000000E-01  8.00000000E-01
  1.50000000E+00  1.50000000E+00  8.00000000E-01  8.00000000E-01  1.50000000E+00
  1.50000000E+00  8.00000000E-01  8.00000000E-01  1.50000000E+00  1.50000000E+00
  8.00000000E-01  8.00000000E-01  1.50000000E+00  1.50000000E+00  8.00000000E-01
  8.00000000E-01  1.50000000E+00  1.50000000E+00  8.00000000E-01  8.00000000E-01
  1.50000000E+00  1.50000000E+00  8.00000000E-01  8.00000000E-01  1.50000000E+00
  1.50000000E+00  8.00000000E-01  8.00000000E-01  1.50000000E+00  1.50000000E+00
  8.00000000E-01  8.00000000E-01  1.50000000E+00  1.50000000E+00  8.00000000E-01
  8.00000000E-01  1.50000000E+00  1.50000000E+00  8.00000000E-01  8.00000000E-01
  1.50000000E+00  1.50000000E+00  8.00000000E-01  8.00000000E-01  1.50000000E+00
  1.50000000E+00  8.00000000E-01  8.00000000E-01  1.50000000E+00  1.50000000E+00
  8.00000000E-01  8.00000000E-01  1.50000000E+00  1.50000000E+00  8.00000000E-01
  8.00000000E-01  1.50000000E+00  1.50000000E+00  8.00000000E-01  8.00000000E-01
  1.50000000E+00  1.50000000E+00  8.00000000E-01  8.00000000E-01  1.50000000E+00
  1.50000000E+00  8.00000000E-01  8.00000000E-01  1.50000000E+00  1.50000000E+00
  8.00000000E-01  8.00000000E-01  1.50000000E+00  1.50000000E+00  8.00000000E-01
  8.00000000E-01  1.50000000E+00  1.50000000E+00  8.00000000E-01  8.00000000E-01
  1.50000000E+00  1.50000000E+00  8.00000000E-01  8.00000000E-01  1.50000000E+00
  1.50000000E+00  8.00000000E-01  8.00000000E-01  1.50000000E+00  1.50000000E+00
  8.00000000E-01  8.00000000E-01  1.50000000E+00  1.50000000E+00  8.00000000E-01
  8.00000000E-01  1.50000000E+00  1.50000000E+00  8.00000000E-01  8.00000000E-01
  1.50000000E+00  1.50000000E+00  8.00000000E-01  8.00000000E-01  1.50000000E+00
  1.50000000E+00  8.00000000E-01  8.00000000E-01  1.50000000E+00  1.50000000E+00
  8.00000000E-01  8.00000000E-01  1.50000000E+00  1.50000000E+00  8.00000000E-01
  8.00000000E-01  1.50000000E+00  1.50000000E+00  8.00000000E-01  8.00000000E-01
  1.50000000E+00  1.50000000E+00  8.00000000E-01  8.00000000E-01  1.50000000E+00
  1.50000000E+00  8.00000000E-01  8.00000000E-01  1.50000000E+00  1.50000000E+00
  8.00000000E-01  8.00000000E-01  1.50000000E+00  1.50000000E+00  8.00000000E-01
  8.00000000E-01  1.50000000E+00  1.50000000E+00  8.00000000E-01  8.00000000E-01
  1.50000000E+00  1.50000000E+00  8.00000000E-01  8.00000000E-01  1.50000000E+00
  1.50000000E+00  8.00000000E-01  8.00000000E-01  1.50000000E+00  1.50000000E+00
  8.00000000E-01  8.00000000E-01  1.50000000E+00  1.50000000E+00  8.00000000E-01
  8.00000000E-01  1.50000000E+00  1.50000000E+00  8.00000000E-01  8.00000000E-01
  1.50000000E+00  1.50000000E+00  8.00000000E-01  8.00000000E-01  1.50000000E+00
  1.50000000E+00  8.00000000E-01  8.00000000E-01  1.50000000E+00  1.50000000E+00
  8.00000000E-01  8.00000000E-01  1.50000000E+00  1.50000000E+00  8.00000000E-01
  8.00000000E-01  1.50000000E+00  1.50000000E+00  8.00000000E-01  8.00000000E-01
  1.50000000E+00  1.50000000E+00  8.00000000E-01  8.00000000E-01  1.50000000E+00
  1.50000000E+00  8.00000000E-01  8.00000000E-01  1.50000000E+00  1.50000000E+00
  8.00000000E-01  8.00000000E-01  1.50000000E+00  1.50000000E+00  8.00000000E-01
  8.00000000E-01  1.50000000E+00  1.50000000E+00  8.00000000E-01  8.00000000E-01
  1.50000000E+00  1.50000000E+00  8.00000000E-01  8.00000000E-01  1.50000000E+00
  1.50000000E+00  8.00000000E-01  8.00000000E-01  1.50000000E+00  1.50000000E+00
  8.00000000E-01  8.00000000E-01  1.50000000E+00  1.50000000E+00  8.00000000E-01
  8.00000000E-01  1.50000000E+00  1.50000000E+00  8.00000000E-01  8.00000000E-01
  1.50000000E+00  1.50000000E+00  8.00000000E-01  8.00000000E-01  1.50000000E+00
  1.50000000E+00  8.00000000E-01  8.00000000E-01  1.50000000E+00  1.50000000E+00
  8.00000000E-01  8.00000000E-01  1.50000000E+00  1.50000000E+00  8.00000000E-01
  8.00000000E-01  1.50000000E+00  1.50000000E+00  8.00000000E-01  8.00000000E-01
  1.50000000E+00  1.50000000E+00  8.00000000E-01  8.00000000E-01  1.50000000E+00
  1.50000000E+00  8.00000000E-01  8.00000000E-01  1.50000000E+00  1.50000000E+00
  8.00000000E-01  8.00000000E-01  1.50000000E+00  1.50000000E+00  8.00000000E-01
  8.00000000E-01  1.50000000E+00  1.50000000E+00  8.00000000E-01  8.00000000E-01
  1.50000000E+00  1.50000000E+00  8.00000000E-01  8.00000000E-01  1.50000000E+00
  1.50000000E+00  8.00000000E-01  8.00000000E-01  1.50000000E+00  1.50000000E+00
  8.00000000E-01  8.00000000E-01  1.50000000E+00  1.50000000E+00  8.00000000E-01
  8.00000000E-01  1.50000000E+00  1.50000000E+00  8.00000000E-01  8.00000000E-01
  1.50000000E+00  1.50000000E+00  8.00000000E-01  8.00000000E-01  1.50000000E+00
  1.50000000E+00  8.00000000E-01  8.00000000E-01  1.50000000E+00  1.50000000E+00
  8.00000000E-01  8.00000000E-01  1.50000000E+00  1.50000000E+00  8.00000000E-01
  8.00000000E-01  1.50000000E+00  1.50000000E+00  8.00000000E-01  8.00000000E-01
  1.50000000E+00  1.50000000E+00  8.00000000E-01  8.00000000E-01  1.50000000E+00
  1.50000000E+00  8.00000000E-01  8.00000000E-01  1.50000000E+00  1.50000000E+00
  8.00000000E-01  8.00000000E-01  1.50000000E+00  1.50000000E+00  8.00000000E-01
  8.00000000E-01  1.50000000E+00  1.50000000E+00  8.00000000E-01  8.00000000E-01
  1.50000000E+00  1.50000000E+00  8.00000000E-01  8.00000000E-01  1.50000000E+00
  1.50000000E+00  8.00000000E-01  8.00000000E-01  1.50000000E+00  1.50000000E+00
  8.00000000E-01  8.00000000E-01  1.50000000E+00  1.50000000E+00  8.00000000E-01
  8.00000000E-01  1.50000000E+00  1.50000000E+00  8.00000000E-01  8.00000000E-01
  1.50000000E+00  1.50000000E+00  8.00000000E-01  8.00000000E-01  1.50000000E+00
  1.50000000E+00  8.00000000E-01  8.00000000E-01  1.50000000E+00  1.50000000E+00
  8.00000000E-01  8.00000000E-01  1.50000000E+00  1.50000000E+00  8.00000000E-01
  8.00000000E-01  1.50000000E+00  1.50000000E+00  8.00000000E-01  8.00000000E-01
  1.50000000E+00  1.50000000E+00  8.00000000E-01  8.00000000E-01  1.50000000E+00
  1.50000000E+00  8.00000000E-01  8.00000000E-01  1.50000000E+00  1.50000000E+00
  8.00000000E-01  8.00000000E-01  1.50000000E+00  1.50000000E+00  8.00000000E-01
  8.00000000E-01  1.50000000E+00  1.50000000E+00  8.00000000E-01  8.00000000E-01
  1.50000000E+00  1.50000000E+00  8.00000000E-01  8.00000000E-01  1.50000000E+00
  1.50000000E+00  8.00000000E-01  8.00000000E-01  1.50000000E+00  1.50000000E+00
  8.00000000E-01  8.00000000E-01  1.50000000E+00  1.50000000E+00  8.00000000E-01
  8.00000000E-01  1.50000000E+00  1.50000000E+00  8.00000000E-01  8.00000000E-01
  1.50000000E+00  1.50000000E+00  8.00000000E-01  8.00000000E-01  1.50000000E+00
  1.50000000E+00  8.00000000E-01  8.00000000E-01  1.50000000E+00  1.50000000E+00
  8.00000000E-01  8.00000000E-01  1.50000000E+00  1.50000000E+00  8.00000000E-01
  8.00000000E-01  1.50000000E+00  1.50000000E+00  8.00000000E-01  8.00000000E-01
  1.50000000E+00  1.50000000E+00  8.00000000E-01  8.00000000E-01  1.50000000E+00
  1.50000000E+00  8.00000000E-01  8.00000000E-01  1.50000000E+00  1.50000000E+00
  8.00000000E-01  8.00000000E-01  1.50000000E+00  1.50000000E+00  8.00000000E-01
  8.00000000E-01  1.50000000E+00  1.50000000E+00  8.00000000E-01  8.00000000E-01
  1.50000000E+00  1.50000000E+00  8.00000000E-01  8.00000000E-01  1.50000000E+00
  1.50000000E+00  8.00000000E-01  8.00000000E-01  1.50000000E+00  1.50000000E+00
  8.00000000E-01  8.00000000E-01  1.50000000E+00  1.50000000E+00  8.00000000E-01
  8.00000000E-01  1.50000000E+00  1.50000000E+00  8.00000000E-01  8.00000000E-01
  1.50000000E+00  1.50000000E+00  8.00000000E-01  8.00000000E-01  1.50000000E+00
  1.50000000E+00  8.00000000E-01  8.00000000E-01  1.50000000E+00  1.50000000E+00
  8.00000000E-01  8.00000000E-01  1.50000000E+00  1.50000000E+00  8.00000000E-01
  8.00000000E-01  1.50000000E+00  1.50000000E+00  8.00000000E-01  8.00000000E-01
  1.50000000E+00  1.50000000E+00  8.00000000E-01  8.00000000E-01  1.50000000E+00
  1.50000000E+00  8.00000000E-01  8.00000000E-01  1.50000000E+00  1.50000000E+00
  8.00000000E-01  8.00000000E-01  1.50000000E+00  1.50000000E+00  8.00000000E-01
  8.00000000E-01  1.50000000E+00  1.50000000E+00  8.00000000E-01  8.00000000E-01
  1.50000000E+00  1.50000000E+00  8.00000000E-01  8.00000000E-01  1.50000000E+00
  1.50000000E+00  8.00000000E-01  8.00000000E-01  1.50000000E+00  1.50000000E+00
  8.00000000E-01  8.00000000E-01  1.50000000E+00  1.50000000E+00  8.00000000E-01
  8.00000000E-01  1.50000000E+00  1.50000000E+00  8.00000000E-01  8.00000000E-01
  1.50000000E+00  1.50000000E+00  8.00000000E-01  8.00000000E-01  1.50000000E+00
  1.50000000E+00  8.00000000E-01  8.00000000E-01  1.50000000E+00  1.50000000E+00
  8.00000000E-01  8.00000000E-01  1.50000000E+00  1.50000000E+00  8.00000000E-01
  8.00000000E-01  1.50000000E+00  1.50000000E+00  8.00000000E-01  8.00000000E-01
  1.50000000E+00  1.50000000E+00  8.00000000E-01  8.00000000E-01  1.50000000E+00
  1.50000000E+00  8.00000000E-01  8.00000000E-01  1.50000000E+00  1.50000000E+00
  8.00000000E-01  8.00000000E-01  1.50000000E+00  1.50000000E+00  8.00000000E-01
  8.00000000E-01  1.50000000E+00  1.50000000E+00  8.00000000E-01  8.00000000E-01
  1.50000000E+00  1.50000000E+00  8.00000000E-01  8.00000000E-01  1.50000000E+00
  1.50000000E+00  8.00000000E-01  8.00000000E-01  1.50000000E+00  1.50000000E+00
  8.00000000E-01  8.00000000E-01  1.50000000E+00  1.50000000E+00  8.00000000E-01
  8.00000000E-01  1.50000000E+00  1.50000000E+00  8.00000000E-01  8.00000000E-01
  1.50000000E+00  1.50000000E+00  8.00000000E-01  8.00000000E-01  1.50000000E+00
  1.50000000E+00  8.00000000E-01  8.00000000E-01  1.50000000E+00  1.50000000E+00
  8.00000000E-01  8.00000000E-01  1.50000000E+00  1.50000000E+00  8.00000000E-01
  8.00000000E-01  1.50000000E+00  1.50000000E+00  8.00000000E-01  8.00000000E-01
  1.50000000E+00  1.50000000E+00  8.00000000E-01  8.00000000E-01  1.50000000E+00
  1.50000000E+00  8.00000000E-01  8.00000000E-01  1.50000000E+00  1.50000000E+00
  8.00000000E-01  8.00000000E-01  1.50000000E+00  1.50000000E+00  8.00000000E-01
  8.00000000E-01  1.50000000E+00  1.50000000E+00  8.00000000E-01  8.00000000E-01
  1.50000000E+00  1.50000000E+00  8.00000000E-01  8.00000000E-01  1.50000000E+00
  1.50000000E+00  8.00000000E-01  8.00000000E-01  1.50000000E+00  1.50000000E+00
  8.00000000E-01  8.00000000E-01  1.50000000E+00  1.50000000E+00  8.00000000E-01
  8.00000000E-01  1.50000000E+00  1.50000000E+00  8.00000000E-01  8.00000000E-01
  1.50000000E+00  1.50000000E+00  8.00000000E-01  8.00000000E-01  1.50000000E+00
  1.50000000E+00  8.00000000E-01  8.00000000E-01  1.50000000E+00  1.50000000E+00
  8.00000000E-01  8.00000000E-01  1.50000000E+00  1.50000000E+00  8.00000000E-01
  8.00000000E-01  1.50000000E+00  1.50000000E+00  8.00000000E-01  8.00000000E-01
  1.50000000E+00  1.50000000E+00  8.00000000E-01  8.00000000E-01  1.50000000E+00
  1.50000000E+00  8.00000000E-01  8.00000000E-01  1.50000000E+00  1.50000000E+00
  8.00000000E-01  8.00000000E-01  1.50000000E+00  1.50000000E+00  8.00000000E-01
  8.00000000E-01  1.50000000E+00  1.50000000E+00  8.00000000E-01  8.00000000E-01
  1.50000000E+00  1.50000000E+00  8.00000000E-01  8.00000000E-01  1.50000000E+00
  1.50000000E+00  8.00000000E-01  8.00000000E-01  1.50000000E+00  1.50000000E+00
  8.00000000E-01  8.00000000E-01  1.50000000E+00  1.50000000E+00  8.00000000E-01
  8.00000000E-01  1.50000000E+00  1.50000000E+00  8.00000000E-01  8.00000000E-01
  1.50000000E+00  1.50000000E+00  8.00000000E-01  8.00000000E-01  1.50000000E+00
  1.50000000E+00  8.00000000E-01  8.00000000E-01  1.50000000E+00  1.50000000E+00
  8.00000000E-01  8.00000000E-01  1.50000000E+00  1.50000000E+00  8.00000000E-01
  8.00000000E-01  1.50000000E+00  1.50000000E+00  8.00000000E-01  8.00000000E-01
  1.50000000E+00  1.50000000E+00  8.00000000E-01  8.00000000E-01  1.50000000E+00
  1.50000000E+00  8.00000000E-01  8.00000000E-01  1.50000000E+00  1.50000000E+00
  8.00000000E-01  8.00000000E-01  1.50000000E+00  1.50000000E+00  8.00000000E-01
  8.00000000E-01  1.50000000E+00  1.50000000E+00  8.00000000E-01  8.00000000E-01
  1.50000000E+00  1.50000000E+00  8.00000000E-01  8.00000000E-01  1.50000000E+00
  1.50000000E+00  8.00000000E-01  8.00000000E-01  1.50000000E+00  1.50000000E+00
  8.00000000E-01  8.00000000E-01  1.50000000E+00  1.50000000E+00  8.00000000E-01
  8.00000000E-01  1.50000000E+00  1.50000000E+00  8.00000000E-01  8.00000000E-01
  1.50000000E+00  1.50000000E+00  8.00000000E-01  8.00000000E-01  1.50000000E+00
  1.50000000E+00  8.00000000E-01  8.00000000E-01  1.50000000E+00  1.50000000E+00
  8.00000000E-01  8.00000000E-01  1.50000000E+00  1.50000000E+00  8.00000000E-01
  8.00000000E-01  1.50000000E+00  1.50000000E+00  8.00000000E-01  8.00000000E-01
  1.50000000E+00  1.50000000E+00  8.00000000E-01  8.00000000E-01  1.50000000E+00
  1.50000000E+00  8.00000000E-01  8.00000000E-01  1.50000000E+00  1.50000000E+00
  8.00000000E-01  8.00000000E-01  1.50000000E+00  1.50000000E+00  8.00000000E-01
  8.00000000E-01  1.50000000E+00  1.50000000E+00  8.00000000E-01  8.00000000E-01
  1.50000000E+00  1.50000000E+00  8.00000000E-01  8.00000000E-01  1.50000000E+00
  1.50000000E+00  8.00000000E-01  8.00000000E-01  1.50000000E+00  1.50000000E+00
  8.00000000E-01  8.00000000E-01  1.50000000E+00  1.50000000E+00  8.00000000E-01
  8.00000000E-01  1.50000000E+00  1.50000000E+00  8.00000000E-01  8.00000000E-01
  1.50000000E+00  1.50000000E+00  8.00000000E-01  8.00000000E-01  1.50000000E+00
  1.50000000E+00  8.00000000E-01  8.00000000E-01  1.50000000E+00  1.50000000E+00
  8.00000000E-01  8.00000000E-01  1.50000000E+00  1.50000000E+00  8.00000000E-01
  8.00000000E-01  1.50000000E+00  1.50000000E+00  8.00000000E-01  8.00000000E-01
  1.50000000E+00  1.50000000E+00  8.00000000E-01  8.00000000E-01  1.50000000E+00
  1.50000000E+00  8.00000000E-01  8.00000000E-01  1.50000000E+00  1.50000000E+00
  8.00000000E-01  8.00000000E-01  1.50000000E+00  1.50000000E+00  8.00000000E-01
  8.00000000E-01  1.50000000E+00  1.50000000E+00  8.00000000E-01  8.00000000E-01
  1.50000000E+00  1.50000000E+00  8.00000000E-01  8.00000000E-01  1.50000000E+00
  1.50000000E+00  8.00000000E-01  8.00000000E-01  1.50000000E+00  1.50000000E+00
  8.00000000E-01  8.00000000E-01  1.50000000E+00  1.50000000E+00  8.00000000E-01
  8.00000000E-01  1.50000000E+00  1.50000000E+00  8.00000000E-01  8.00000000E-01
  1.50000000E+00  1.50000000E+00  8.00000000E-01  8.00000000E-01  1.50000000E+00
  1.50000000E+00  8.00000000E-01  8.00000000E-01  1.50000000E+00  1.50000000E+00
  8.00000000E-01  8.00000000E-01  1.50000000E+00  1.50000000E+00  8.00000000E-01
  8.00000000E-01  1.50000000E+00  1.50000000E+00  8.00000000E-01  8.00000000E-01
  1.50000000E+00  1.50000000E+00  8.00000000E-01  8.00000000E-01  1.50000000E+00
  1.50000000E+00  8.00000000E-01  8.00000000E-01  1.50000000E+00  1.50000000E+00
  8.00000000E-01  8.00000000E-01  1.50000000E+00  1.50000000E+00  8.00000000E-01
  8.00000000E-01  1.50000000E+00  1.50000000E+00  8.00000000E-01  8.00000000E-01
  1.50000000E+00  1.50000000E+00  8.00000000E-01  8.00000000E-01  1.50000000E+00
  1.50000000E+00  8.00000000E-01  8.00000000E-01  1.50000000E+00  1.50000000E+00
  8.00000000E-01  8.00000000E-01  1.50000000E+00  1.50000000E+00  8.00000000E-01
  8.00000000E-01  1.50000000E+00  1.50000000E+00  8.00000000E-01  8.00000000E-01
  1.50000000E+00  1.50000000E+00  8.00000000E-01  8.00000000E-01  1.50000000E+00
  1.50000000E+00  8.00000000E-01  8.00000000E-01  1.50000000E+00  1.50000000E+00
  8.00000000E-01  8.00000000E-01  1.50000000E+00  1.50000000E+00  8.00000000E-01
  8.00000000E-01  1.50000000E+00  1.50000000E+00  8.00000000E-01  8.00000000E-01
  1.50000000E+00  1.50000000E+00  8.00000000E-01  8.00000000E-01  1.50000000E+00
  1.50000000E+00  8.00000000E-01  8.00000000E-01  1.50000000E+00  1.50000000E+00
  8.00000000E-01  8.00000000E-01  1.50000000E+00  1.50000000E+00  8.00000000E-01
  8.00000000E-01  1.50000000E+00  1.50000000E+00  8.00000000E-01  8.00000000E-01
  1.50000000E+00  1.50000000E+00  8.00000000E-01  8.00000000E-01  1.50000000E+00
  1.50000000E+00  8.00000000E-01  8.00000000E-01  1.50000000E+00  1.50000000E+00
  8.00000000E-01  8.00000000E-01  1.50000000E+00  1.50000000E+00  8.00000000E-01
  8.00000000E-01  1.50000000E+00  1.50000000E+00  8.00000000E-01  8.00000000E-01
  1.50000000E+00  1.50000000E+00  8.00000000E-01  8.00000000E-01  1.50000000E+00
  1.50000000E+00  8.00000000E-01  8.00000000E-01  1.50000000E+00  1.50000000E+00
  8.00000000E-01  8.00000000E-01  1.50000000E+00  1.50000000E+00  8.00000000E-01
  8.00000000E-01  1.50000000E+00  1.50000000E+00  8.00000000E-01  8.00000000E-01
  1.50000000E+00  1.50000000E+00  8.00000000E-01  8.00000000E-01  1.50000000E+00
  1.50000000E+00  8.00000000E-01  8.00000000E-01  1.50000000E+00  1.50000000E+00
  8.00000000E-01  8.00000000E-01  1.50000000E+00  1.50000000E+00  8.00000000E-01
  8.00000000E-01  1.50000000E+00  1.50000000E+00  8.00000000E-01  8.00000000E-01
  1.50000000E+00  1.50000000E+00  8.00000000E-01  8.00000000E-01  1.50000000E+00
  1.50000000E+00  8.00000000E-01  8.00000000E-01  1.50000000E+00  1.50000000E+00
  8.00000000E-01  8.00000000E-01  1.50000000E+00  1.50000000E+00  8.00000000E-01
  8.00000000E-01  1.50000000E+00  1.50000000E+00  8.00000000E-01  8.00000000E-01
  1.50000000E+00  1.50000000E+00  8.00000000E-01  8.00000000E-01  1.50000000E+00
  1.50000000E+00  8.00000000E-01  8.00000000E-01  1.50000000E+00  1.50000000E+00
  8.00000000E-01  8.00000000E-01  1.50000000E+00  1.50000000E+00  8.00000000E-01
  8.00000000E-01  1.50000000E+00  1.50000000E+00  8.00000000E-01  8.00000000E-01
  1.50000000E+00  1.50000000E+00  8.00000000E-01  8.00000000E-01  1.50000000E+00
  1.50000000E+00  8.00000000E-01  8.00000000E-01  1.50000000E+00  1.50000000E+00
  8.00000000E-01  8.00000000E-01  1.50000000E+00  1.50000000E+00  8.00000000E-01
  8.00000000E-01  1.50000000E+00  1.50000000E+00  8.00000000E-01  8.00000000E-01
  1.50000000E+00  1.50000000E+00  8.00000000E-01  8.00000000E-01  1.50000000E+00
  1.50000000E+00  8.00000000E-01  8.00000000E-01  1.50000000E+00  1.50000000E+00
  8.00000000E-01  8.00000000E-01  1.50000000E+00  1.50000000E+00  8.00000000E-01
  8.00000000E-01  1.50000000E+00  1.50000000E+00  8.00000000E-01  8.00000000E-01
  1.50000000E+00  1.50000000E+00  8.00000000E-01  8.00000000E-01  1.50000000E+00
  1.50000000E+00  8.00000000E-01  8.00000000E-01  1.50000000E+00  1.50000000E+00
  8.00000000E-01  8.00000000E-01  1.50000000E+00  1.50000000E+00  8.00000000E-01
  8.00000000E-01  1.50000000E+00  1.50000000E+00  8.00000000E-01  8.00000000E-01
  1.50000000E+00  1.50000000E+00  8.00000000E-01  8.00000000E-01  1.50000000E+00
  1.50000000E+00  8.00000000E-01  8.00000000E-01  1.50000000E+00  1.50000000E+00
  8.00000000E-01  8.00000000E-01  1.50000000E+00  1.50000000E+00  8.00000000E-01
  8.00000000E-01  1.50000000E+00  1.50000000E+00  8.00000000E-01  8.00000000E-01
  1.50000000E+00  1.50000000E+00  8.00000000E-01  8.00000000E-01  1.50000000E+00
  1.50000000E+00  8.00000000E-01  8.00000000E-01  1.50000000E+00  1.50000000E+00
  8.00000000E-01  8.00000000E-01  1.50000000E+00  1.50000000E+00  8.00000000E-01
  8.00000000E-01  1.50000000E+00  1.50000000E+00  8.00000000E-01  8.00000000E-01
  1.50000000E+00  1.50000000E+00  8.00000000E-01  8.00000000E-01  1.50000000E+00
  1.50000000E+00  8.00000000E-01  8.00000000E-01  1.50000000E+00  1.50000000E+00
  8.00000000E-01  8.00000000E-01  1.50000000E+00  1.50000000E+00  8.00000000E-01
  8.00000000E-01  1.50000000E+00  1.50000000E+00  8.00000000E-01  8.00000000E-01
  1.50000000E+00  1.50000000E+00  8.00000000E-01  8.00000000E-01  1.50000000E+00
  1.50000000E+00  8.00000000E-01  8.00000000E-01  1.50000000E+00  1.50000000E+00
  8.00000000E-01  8.00000000E-01  1.50000000E+00  1.50000000E+00  8.00000000E-01
  8.00000000E-01  1.50000000E+00  1.50000000E+00  8.00000000E-01  8.00000000E-01
  1.50000000E+00  1.50000000E+00  8.00000000E-01  8.00000000E-01  1.50000000E+00
  1.50000000E+00  8.00000000E-01  8.00000000E-01  1.50000000E+00  1.50000000E+00
  8.00000000E-01  8.00000000E-01  1.50000000E+00  1.50000000E+00  8.00000000E-01
  8.00000000E-01  1.50000000E+00  1.50000000E+00  8.00000000E-01  8.00000000E-01
  1.50000000E+00  1.50000000E+00  8.00000000E-01  8.00000000E-01  1.50000000E+00
  1.50000000E+00  8.00000000E-01  8.00000000E-01  1.50000000E+00  1.50000000E+00
  8.00000000E-01  8.00000000E-01  1.50000000E+00  1.50000000E+00  8.00000000E-01
  8.00000000E-01  1.50000000E+00  1.50000000E+00  8.00000000E-01  8.00000000E-01
  1.50000000E+00  1.50000000E+00  8.00000000E-01  8.00000000E-01  1.50000000E+00
  1.50000000E+00  8.00000000E-01  8.00000000E-01  1.50000000E+00  1.50000000E+00
  8.00000000E-01  8.00000000E-01  1.50000000E+00  1.50000000E+00  8.00000000E-01
  8.00000000E-01  1.50000000E+00  1.50000000E+00  8.00000000E-01  8.00000000E-01
  1.50000000E+00  1.50000000E+00  8.00000000E-01  8.00000000E-01  1.50000000E+00
  1.50000000E+00  8.00000000E-01  8.00000000E-01  1.50000000E+00  1.50000000E+00
  8.00000000E-01  8.00000000E-01  1.50000000E+00  1.50000000E+00  8.00000000E-01
  8.00000000E-01  1.50000000E+00  1.50000000E+00  8.00000000E-01  8.00000000E-01
  1.50000000E+00  1.50000000E+00  8.00000000E-01  8.00000000E-01  1.50000000E+00
  1.50000000E+00  8.00000000E-01  8.00000000E-01  1.50000000E+00  1.50000000E+00
  8.00000000E-01  8.00000000E-01  1.50000000E+00  1.50000000E+00  8.00000000E-01
  8.00000000E-01  1.50000000E+00  1.50000000E+00  8.00000000E-01  8.00000000E-01
  1.50000000E+00  1.50000000E+00  8.00000000E-01  8.00000000E-01  1.50000000E+00
  1.50000000E+00  8.00000000E-01  8.00000000E-01  1.50000000E+00  1.50000000E+00
  8.00000000E-01  8.00000000E-01  1.50000000E+00  1.50000000E+00  8.00000000E-01
  8.00000000E-01  1.50000000E+00  1.50000000E+00  8.00000000E-01  8.00000000E-01
  1.50000000E+00  1.50000000E+00  8.00000000E-01  8.00000000E-01  1.50000000E+00
  1.50000000E+00  8.00000000E-01  8.00000000E-01  1.50000000E+00  1.50000000E+00
  8.00000000E-01  8.00000000E-01  1.50000000E+00  1.50000000E+00  8.00000000E-01
  8.00000000E-01  1.50000000E+00  1.50000000E+00  8.00000000E-01  8.00000000E-01
  1.50000000E+00  1.50000000E+00  8.00000000E-01  8.00000000E-01  1.50000000E+00
  1.50000000E+00  8.00000000E-01  8.00000000E-01  1.50000000E+00  1.50000000E+00
  8.00000000E-01  8.00000000E-01  1.50000000E+00  1.50000000E+00  8.00000000E-01
  8.00000000E-01  1.50000000E+00  1.50000000E+00  8.00000000E-01  8.00000000E-01
  1.50000000E+00  1.50000000E+00  8.00000000E-01  8.00000000E-01  1.50000000E+00
  1.50000000E+00  8.00000000E-01  8.00000000E-01  1.50000000E+00  1.50000000E+00
  8.00000000E-01  8.00000000E-01  1.50000000E+00  1.50000000E+00  8.00000000E-01
  8.00000000E-01  1.50000000E+00  1.50000000E+00  8.00000000E-01  8.00000000E-01
  1.50000000E+00  1.50000000E+00  8.00000000E-01  8.00000000E-01  1.50000000E+00
  1.50000000E+00  8.00000000E-01  8.00000000E-01  1.50000000E+00  1.50000000E+00
  8.00000000E-01  8.00000000E-01  1.50000000E+00  1.50000000E+00  8.00000000E-01
  8.00000000E-01  1.50000000E+00  1.50000000E+00  8.00000000E-01  8.00000000E-01
  1.50000000E+00  1.50000000E+00  8.00000000E-01  8.00000000E-01  1.50000000E+00
  1.50000000E+00  8.00000000E-01  8.00000000E-01  1.50000000E+00  1.50000000E+00
  8.00000000E-01  8.00000000E-01  1.50000000E+00  1.50000000E+00  8.00000000E-01
  8.00000000E-01  1.50000000E+00  1.50000000E+00  8.00000000E-01  8.00000000E-01
  1.50000000E+00  1.50000000E+00  8.00000000E-01  8.00000000E-01  1.50000000E+00
  1.50000000E+00  8.00000000E-01  8.00000000E-01  1.50000000E+00  1.50000000E+00
  8.00000000E-01  8.00000000E-01  1.50000000E+00  1.50000000E+00  8.00000000E-01
  8.00000000E-01  1.50000000E+00  1.50000000E+00  8.00000000E-01  8.00000000E-01
  1.50000000E+00  1.50000000E+00  8.00000000E-01  8.00000000E-01  1.50000000E+00
  1.50000000E+00  8.00000000E-01  8.00000000E-01  1.50000000E+00  1.50000000E+00
  8.00000000E-01  8.00000000E-01  1.50000000E+00  1.50000000E+00  8.00000000E-01
  8.00000000E-01  1.50000000E+00  1.50000000E+00  8.00000000E-01  8.00000000E-01
  1.50000000E+00  1.50000000E+00  8.00000000E-01  8.00000000E-01  1.50000000E+00
  1.50000000E+00  8.00000000E-01  8.00000000E-01  1.50000000E+00  1.50000000E+00
  8.00000000E-01  8.00000000E-01  1.50000000E+00  1.50000000E+00  8.00000000E-01
  8.00000000E-01  1.50000000E+00  1.50000000E+00  8.00000000E-01  8.00000000E-01
  1.50000000E+00  1.50000000E+00  8.00000000E-01  8.00000000E-01  1.50000000E+00
  1.50000000E+00  8.00000000E-01  8.00000000E-01  1.50000000E+00  1.50000000E+00
  8.00000000E-01  8.00000000E-01  1.50000000E+00  1.50000000E+00  8.00000000E-01
  8.00000000E-01  1.50000000E+00  1.50000000E+00  8.00000000E-01  8.00000000E-01
  1.50000000E+00  1.50000000E+00  8.00000000E-01  8.00000000E-01  1.50000000E+00
  1.50000000E+00  8.00000000E-01  8.00000000E-01  1.50000000E+00  1.50000000E+00
  8.00000000E-01  8.00000000E-01  1.50000000E+00  1.50000000E+00  8.00000000E-01
  8.00000000E-01  1.50000000E+00  1.50000000E+00  8.00000000E-01  8.00000000E-01
  1.50000000E+00  1.50000000E+00  8.00000000E-01  8.00000000E-01  1.50000000E+00
  1.50000000E+00  8.00000000E-01  8.00000000E-01  1.50000000E+00  1.50000000E+00
  8.00000000E-01  8.00000000E-01  1.50000000E+00  1.50000000E+00  8.00000000E-01
  8.00000000E-01  1.50000000E+00  1.50000000E+00  8.00000000E-01  8.00000000E-01
  1.50000000E+00  1.50000000E+00  8.00000000E-01  8.00000000E-01  1.50000000E+00
  1.50000000E+00  8.00000000E-01  8.00000000E-01  1.50000000E+00  1.50000000E+00
  8.00000000E-01  8.00000000E-01  1.50000000E+00  1.50000000E+00  8.00000000E-01
  8.00000000E-01  1.50000000E+00  1.50000000E+00  8.00000000E-01  8.00000000E-01
  1.50000000E+00  1.50000000E+00  8.00000000E-01  8.00000000E-01  1.50000000E+00
  1.50000000E+00  8.00000000E-01  8.00000000E-01  1.50000000E+00  1.50000000E+00
  8.00000000E-01  8.00000000E-01  1.50000000E+00  1.50000000E+00  8.00000000E-01
  8.00000000E-01  1.50000000E+00  1.50000000E+00  8.00000000E-01  8.00000000E-01
  1.50000000E+00  1.50000000E+00  8.00000000E-01  8.00000000E-01  1.50000000E+00
  1.50000000E+00  8.00000000E-01  8.00000000E-01  1.50000000E+00  1.50000000E+00
  8.00000000E-01  8.00000000E-01  1.50000000E+00  1.50000000E+00  8.00000000E-01
  8.00000000E-01  1.50000000E+00  1.50000000E+00  8.00000000E-01  8.00000000E-01
  1.50000000E+00  1.50000000E+00  8.00000000E-01  8.00000000E-01  1.50000000E+00
  1.50000000E+00  8.00000000E-01  8.00000000E-01  1.50000000E+00  1.50000000E+00
  8.00000000E-01  8.00000000E-01  1.50000000E+00  1.50000000E+00  8.00000000E-01
  8.00000000E-01  1.50000000E+00  1.50000000E+00  8.00000000E-01  8.00000000E-01
  1.50000000E+00  1.50000000E+00  8.00000000E-01  8.00000000E-01  1.50000000E+00
  1.50000000E+00  8.00000000E-01  8.00000000E-01  1.50000000E+00  1.50000000E+00
  8.00000000E-01  8.00000000E-01  1.50000000E+00  1.50000000E+00  8.00000000E-01
  8.00000000E-01  1.50000000E+00  1.50000000E+00  8.00000000E-01  8.00000000E-01
  1.50000000E+00  1.50000000E+00  8.00000000E-01  8.00000000E-01  1.50000000E+00
  1.50000000E+00  8.00000000E-01  8.00000000E-01  1.50000000E+00  1.50000000E+00
  8.00000000E-01  8.00000000E-01  1.50000000E+00  1.50000000E+00  8.00000000E-01
  8.00000000E-01  1.50000000E+00  1.50000000E+00  8.00000000E-01  8.00000000E-01
  1.50000000E+00  1.50000000E+00  8.00000000E-01  8.00000000E-01  1.50000000E+00
  1.50000000E+00  8.00000000E-01  8.00000000E-01  1.50000000E+00  1.50000000E+00
  8.00000000E-01  8.00000000E-01  1.50000000E+00  1.50000000E+00  8.00000000E-01
  8.00000000E-01  1.50000000E+00  1.50000000E+00  8.00000000E-01  8.00000000E-01
  1.50000000E+00  1.50000000E+00  8.00000000E-01  8.00000000E-01  1.50000000E+00
  1.50000000E+00  8.00000000E-01  8.00000000E-01  1.50000000E+00  1.50000000E+00
  8.00000000E-01  8.00000000E-01  1.50000000E+00  1.50000000E+00  8.00000000E-01
  8.00000000E-01  1.50000000E+00  1.50000000E+00  8.00000000E-01  8.00000000E-01
  1.50000000E+00  1.50000000E+00  8.00000000E-01  8.00000000E-01  1.50000000E+00
  1.50000000E+00  8.00000000E-01  8.00000000E-01  1.50000000E+00  1.50000000E+00
  8.00000000E-01  8.00000000E-01  1.50000000E+00  1.50000000E+00  8.00000000E-01
  8.00000000E-01  1.50000000E+00  1.50000000E+00  8.00000000E-01  8.00000000E-01
  1.50000000E+00  1.50000000E+00  8.00000000E-01  8.00000000E-01  1.50000000E+00
  1.50000000E+00  8.00000000E-01  8.00000000E-01  1.50000000E+00  1.50000000E+00
  8.00000000E-01  8.00000000E-01  1.50000000E+00  1.50000000E+00  8.00000000E-01
  8.00000000E-01  1.50000000E+00  1.50000000E+00  8.00000000E-01  8.00000000E-01
  1.50000000E+00  1.50000000E+00  8.00000000E-01  8.00000000E-01  1.50000000E+00
  1.50000000E+00  8.00000000E-01  8.00000000E-01  1.50000000E+00  1.50000000E+00
  8.00000000E-01  8.00000000E-01  1.50000000E+00  1.50000000E+00  8.00000000E-01
  8.00000000E-01  1.50000000E+00  1.50000000E+00  8.00000000E-01  8.00000000E-01
  1.50000000E+00  1.50000000E+00  8.00000000E-01  8.00000000E-01  1.50000000E+00
  1.50000000E+00  8.00000000E-01  8.00000000E-01  1.50000000E+00  1.50000000E+00
  8.00000000E-01  8.00000000E-01  1.50000000E+00  1.50000000E+00  8.00000000E-01
  8.00000000E-01  1.50000000E+00  1.50000000E+00  8.00000000E-01  8.00000000E-01
  1.50000000E+00  1.50000000E+00  8.00000000E-01  8.00000000E-01  1.50000000E+00
  1.50000000E+00  8.00000000E-01  8.00000000E-01  1.50000000E+00  1.50000000E+00
  8.00000000E-01  8.00000000E-01  1.50000000E+00  1.50000000E+00  8.00000000E-01
  8.00000000E-01  1.50000000E+00  1.50000000E+00  8.00000000E-01  8.00000000E-01
  1.50000000E+00  1.50000000E+00  8.00000000E-01  8.00000000E-01  1.50000000E+00
  1.50000000E+00  8.00000000E-01  8.00000000E-01  1.50000000E+00  1.50000000E+00
  8.00000000E-01  8.00000000E-01  1.50000000E+00  1.50000000E+00  8.00000000E-01
  8.00000000E-01  1.50000000E+00  1.50000000E+00  8.00000000E-01  8.00000000E-01
  1.50000000E+00  1.50000000E+00  8.00000000E-01  8.00000000E-01  1.50000000E+00
  1.50000000E+00  8.00000000E-01  8.00000000E-01  1.50000000E+00  1.50000000E+00
  8.00000000E-01  8.00000000E-01  1.50000000E+00  1.50000000E+00  8.00000000E-01
  8.00000000E-01  1.50000000E+00  1.50000000E+00  8.00000000E-01  8.00000000E-01
  1.50000000E+00  1.50000000E+00  8.00000000E-01  8.00000000E-01  1.50000000E+00
  1.50000000E+00  8.00000000E-01  8.00000000E-01  1.50000000E+00  1.50000000E+00
  8.00000000E-01  8.00000000E-01  1.50000000E+00  1.50000000E+00  8.00000000E-01
  8.00000000E-01  1.50000000E+00  1.50000000E+00  8.00000000E-01  8.00000000E-01
  1.50000000E+00  1.50000000E+00  8.00000000E-01  8.00000000E-01  1.50000000E+00
  1.50000000E+00  8.00000000E-01  8.00000000E-01  1.50000000E+00  1.50000000E+00
  8.00000000E-01  8.00000000E-01  1.50000000E+00  1.50000000E+00  8.00000000E-01
  8.00000000E-01  1.50000000E+00  1.50000000E+00  8.00000000E-01  8.00000000E-01
  1.50000000E+00  1.50000000E+00  8.00000000E-01  8.00000000E-01  1.50000000E+00
  1.50000000E+00  8.00000000E-01  8.00000000E-01  1.50000000E+00  1.50000000E+00
  8.00000000E-01  8.00000000E-01  1.50000000E+00  1.50000000E+00  8.00000000E-01
  8.00000000E-01  1.50000000E+00  1.50000000E+00  8.00000000E-01  8.00000000E-01
  1.50000000E+00  1.50000000E+00  8.00000000E-01  8.00000000E-01  1.50000000E+00
  1.50000000E+00  8.00000000E-01  8.00000000E-01  1.50000000E+00  1.50000000E+00
  8.00000000E-01  8.00000000E-01  1.50000000E+00  1.50000000E+00  8.00000000E-01
  8.00000000E-01  1.50000000E+00  1.50000000E+00  8.00000000E-01  8.00000000E-01
  1.50000000E+00  1.50000000E+00  8.00000000E-01  8.00000000E-01  1.50000000E+00
  1.50000000E+00  8.00000000E-01  8.00000000E-01  1.50000000E+00  1.50000000E+00
  8.00000000E-01  8.00000000E-01  1.50000000E+00  1.50000000E+00  8.00000000E-01
  8.00000000E-01  1.50000000E+00  1.50000000E+00  8.00000000E-01  8.00000000E-01
  1.50000000E+00  1.50000000E+00  8.00000000E-01  8.00000000E-01  1.50000000E+00
  1.50000000E+00  8.00000000E-01  8.00000000E-01  1.50000000E+00  1.50000000E+00
  8.00000000E-01  8.00000000E-01  1.50000000E+00  1.50000000E+00  8.00000000E-01
  8.00000000E-01  1.50000000E+00  1.50000000E+00  8.00000000E-01  8.00000000E-01
  1.50000000E+00  1.50000000E+00  8.00000000E-01  8.00000000E-01  1.50000000E+00
  1.50000000E+00  8.00000000E-01  8.00000000E-01  1.50000000E+00  1.50000000E+00
  8.00000000E-01  8.00000000E-01  1.50000000E+00  1.50000000E+00  8.00000000E-01
  8.00000000E-01  1.50000000E+00  1.50000000E+00  8.00000000E-01  8.00000000E-01
  1.50000000E+00  1.50000000E+00  8.00000000E-01  8.00000000E-01  1.50000000E+00
  1.50000000E+00  8.00000000E-01  8.00000000E-01  1.50000000E+00  1.50000000E+00
  8.00000000E-01  8.00000000E-01  1.50000000E+00  1.50000000E+00  8.00000000E-01
  8.00000000E-01  1.50000000E+00  1.50000000E+00  8.00000000E-01  8.00000000E-01
  1.50000000E+00  1.50000000E+00  8.00000000E-01  8.00000000E-01  1.50000000E+00
  1.50000000E+00  8.00000000E-01  8.00000000E-01  1.50000000E+00  1.50000000E+00
  8.00000000E-01  8.00000000E-01  1.50000000E+00  1.50000000E+00  8.00000000E-01
  8.00000000E-01  1.50000000E+00  1.50000000E+00  8.00000000E-01  8.00000000E-01
  1.50000000E+00  1.50000000E+00  8.00000000E-01  8.00000000E-01  1.50000000E+00
  1.50000000E+00  8.00000000E-01  8.00000000E-01  1.50000000E+00  1.50000000E+00
  8.00000000E-01  8.00000000E-01  1.50000000E+00  1.50000000E+00  8.00000000E-01
  8.00000000E-01  1.50000000E+00  1.50000000E+00  8.00000000E-01  8.00000000E-01
  1.50000000E+00  1.50000000E+00  8.00000000E-01  8.00000000E-01  1.50000000E+00
  1.50000000E+00  8.00000000E-01  8.00000000E-01  1.50000000E+00  1.50000000E+00
  8.00000000E-01  8.00000000E-01  1.50000000E+00  1.50000000E+00  8.00000000E-01
  8.00000000E-01  1.50000000E+00  1.50000000E+00  8.00000000E-01  8.00000000E-01
  1.50000000E+00  1.50000000E+00  8.00000000E-01  8.00000000E-01  1.50000000E+00
  1.50000000E+00  8.00000000E-01  8.00000000E-01  1.50000000E+00  1.50000000E+00
  8.00000000E-01  8.00000000E-01  1.50000000E+00  1.50000000E+00  8.00000000E-01
  8.00000000E-01  1.50000000E+00  1.50000000E+00  8.00000000E-01  8.00000000E-01
  1.50000000E+00  1.50000000E+00  8.00000000E-01  8.00000000E-01  1.50000000E+00
  1.50000000E+00  8.00000000E-01  8.00000000E-01  1.50000000E+00  1.50000000E+00
  8.00000000E-01  8.00000000E-01  1.50000000E+00  1.50000000E+00  8.00000000E-01
  8.00000000E-01  1.50000000E+00  1.50000000E+00  8.00000000E-01  8.00000000E-01
  1.50000000E+00  1.50000000E+00  8.00000000E-01  8.00000000E-01  1.50000000E+00
  1.50000000E+00  8.00000000E-01  8.00000000E-01  1.50000000E+00  1.50000000E+00
  8.00000000E-01  8.00000000E-01  1.50000000E+00  1.50000000E+00  8.00000000E-01
  8.00000000E-01  1.50000000E+00  1.50000000E+00  8.00000000E-01  8.00000000E-01
  1.50000000E+00  1.50000000E+00  8.00000000E-01  8.00000000E-01  1.50000000E+00
  1.50000000E+00  8.00000000E-01  8.00000000E-01  1.50000000E+00  1.50000000E+00
  8.00000000E-01  8.00000000E-01  1.50000000E+00  1.50000000E+00  8.00000000E-01
  8.00000000E-01  1.50000000E+00  1.50000000E+00  8.00000000E-01  8.00000000E-01
  1.50000000E+00  1.50000000E+00  8.00000000E-01  8.00000000E-01  1.50000000E+00
  1.50000000E+00  8.00000000E-01  8.00000000E-01  1.50000000E+00  1.50000000E+00
  8.00000000E-01  8.00000000E-01  1.50000000E+00  1.50000000E+00  8.00000000E-01
  8.00000000E-01  1.50000000E+00  1.50000000E+00  8.00000000E-01  8.00000000E-01
  1.50000000E+00  1.50000000E+00  8.00000000E-01  8.00000000E-01  1.50000000E+00
  1.50000000E+00  8.00000000E-01  8.00000000E-01  1.50000000E+00  1.50000000E+00
  8.00000000E-01  8.00000000E-01  1.50000000E+00  1.50000000E+00  8.00000000E-01
  8.00000000E-01  1.50000000E+00  1.50000000E+00  8.00000000E-01  8.00000000E-01
  1.50000000E+00  1.50000000E+00  8.00000000E-01  8.00000000E-01  1.50000000E+00
  1.50000000E+00  8.00000000E-01  8.00000000E-01  1.50000000E+00  1.50000000E+00
  8.00000000E-01  8.00000000E-01  1.50000000E+00  1.50000000E+00  8.00000000E-01
  8.00000000E-01  1.50000000E+00  1.50000000E+00  8.00000000E-01  8.00000000E-01
  1.50000000E+00  1.50000000E+00  8.00000000E-01  8.00000000E-01  1.50000000E+00
  1.50000000E+00  8.00000000E-01  8.00000000E-01  1.50000000E+00  1.50000000E+00
  8.00000000E-01  8.00000000E-01  1.50000000E+00  1.50000000E+00  8.00000000E-01
  8.00000000E-01  1.50000000E+00  1.50000000E+00  8.00000000E-01  8.00000000E-01
  1.50000000E+00  1.50000000E+00  8.00000000E-01  8.00000000E-01  1.50000000E+00
  1.50000000E+00  8.00000000E-01  8.00000000E-01  1.50000000E+00  1.50000000E+00
  8.00000000E-01  8.00000000E-01  1.50000000E+00  1.50000000E+00  8.00000000E-01
  8.00000000E-01  1.50000000E+00  1.50000000E+00  8.00000000E-01  8.00000000E-01
  1.50000000E+00  1.50000000E+00  8.00000000E-01  8.00000000E-01  1.50000000E+00
  1.50000000E+00  8.00000000E-01  8.00000000E-01  1.50000000E+00  1.50000000E+00
  8.00000000E-01  8.00000000E-01  1.50000000E+00  1.50000000E+00  8.00000000E-01
  8.00000000E-01  1.50000000E+00  1.50000000E+00  8.00000000E-01  8.00000000E-01
  1.50000000E+00  1.50000000E+00  8.00000000E-01  8.00000000E-01  1.50000000E+00
  1.50000000E+00  8.00000000E-01  8.00000000E-01  1.50000000E+00  1.50000000E+00
  8.00000000E-01  8.00000000E-01  1.50000000E+00  1.50000000E+00  8.00000000E-01
  8.00000000E-01  1.50000000E+00  1.50000000E+00  8.00000000E-01  8.00000000E-01
  1.50000000E+00  1.50000000E+00  8.00000000E-01  8.00000000E-01  1.50000000E+00
  1.50000000E+00  8.00000000E-01  8.00000000E-01  1.50000000E+00  1.50000000E+00
  8.00000000E-01  8.00000000E-01  1.50000000E+00  1.50000000E+00  8.00000000E-01
  8.00000000E-01  1.50000000E+00  1.50000000E+00  8.00000000E-01  8.00000000E-01
  1.50000000E+00  1.50000000E+00  8.00000000E-01  8.00000000E-01  1.50000000E+00
  1.50000000E+00  8.00000000E-01  8.00000000E-01  1.50000000E+00  1.50000000E+00
  8.00000000E-01  8.00000000E-01  1.50000000E+00  1.50000000E+00  8.00000000E-01
  8.00000000E-01  1.50000000E+00  1.50000000E+00  8.00000000E-01  8.00000000E-01
  1.50000000E+00  1.50000000E+00  8.00000000E-01  8.00000000E-01  1.50000000E+00
  1.50000000E+00  8.00000000E-01  8.00000000E-01  1.50000000E+00  1.50000000E+00
  8.00000000E-01  8.00000000E-01  1.50000000E+00  1.50000000E+00  8.00000000E-01
  8.00000000E-01  1.50000000E+00  1.50000000E+00  8.00000000E-01  8.00000000E-01
  1.50000000E+00  1.50000000E+00  8.00000000E-01  8.00000000E-01  1.50000000E+00
  1.50000000E+00  8.00000000E-01  8.00000000E-01  1.50000000E+00  1.50000000E+00
  8.00000000E-01  8.00000000E-01  1.50000000E+00  1.50000000E+00  8.00000000E-01
  8.00000000E-01  1.50000000E+00  1.50000000E+00  8.00000000E-01  8.00000000E-01
  1.50000000E+00  1.50000000E+00  8.00000000E-01  8.00000000E-01  1.50000000E+00
  1.50000000E+00  8.00000000E-01  8.00000000E-01  1.50000000E+00  1.50000000E+00
  8.00000000E-01  8.00000000E-01  1.50000000E+00  1.50000000E+00  8.00000000E-01
  8.00000000E-01  1.50000000E+00  1.50000000E+00  8.00000000E-01  8.00000000E-01
  1.50000000E+00  1.50000000E+00  8.00000000E-01  8.00000000E-01  1.50000000E+00
  1.50000000E+00  8.00000000E-01  8.00000000E-01  1.50000000E+00  1.50000000E+00
  8.00000000E-01  8.00000000E-01  1.50000000E+00  1.50000000E+00  8.00000000E-01
  8.00000000E-01  1.50000000E+00  1.50000000E+00  8.00000000E-01  8.00000000E-01
  1.50000000E+00  1.50000000E+00  8.00000000E-01  8.00000000E-01  1.50000000E+00
  1.50000000E+00  8.00000000E-01  8.00000000E-01  1.50000000E+00  1.50000000E+00
  8.00000000E-01  8.00000000E-01  1.50000000E+00  1.50000000E+00  8.00000000E-01
  8.00000000E-01  1.50000000E+00  1.50000000E+00  8.00000000E-01  8.00000000E-01
  1.50000000E+00  1.50000000E+00  8.00000000E-01  8.00000000E-01  1.50000000E+00
  1.50000000E+00  8.00000000E-01  8.00000000E-01  1.50000000E+00  1.50000000E+00
  8.00000000E-01  8.00000000E-01  1.50000000E+00  1.50000000E+00  8.00000000E-01
  8.00000000E-01  1.50000000E+00  1.50000000E+00  8.00000000E-01  8.00000000E-01
  1.50000000E+00  1.50000000E+00  8.00000000E-01  8.00000000E-01  1.50000000E+00
  1.50000000E+00  8.00000000E-01  8.00000000E-01  1.50000000E+00  1.50000000E+00
  8.00000000E-01  8.00000000E-01  1.50000000E+00  1.50000000E+00  8.00000000E-01
  8.00000000E-01  1.50000000E+00  1.50000000E+00  8.00000000E-01  8.00000000E-01
  1.50000000E+00  1.50000000E+00  8.00000000E-01  8.00000000E-01  1.50000000E+00
  1.50000000E+00  8.00000000E-01  8.00000000E-01  1.50000000E+00  1.50000000E+00
  8.00000000E-01  8.00000000E-01  1.50000000E+00  1.50000000E+00  8.00000000E-01
  8.00000000E-01  1.50000000E+00  1.50000000E+00  8.00000000E-01  8.00000000E-01
  1.50000000E+00  1.50000000E+00  8.00000000E-01  8.00000000E-01  1.50000000E+00
  1.50000000E+00  8.00000000E-01  8.00000000E-01  1.50000000E+00  1.50000000E+00
  8.00000000E-01  8.00000000E-01  1.50000000E+00  1.50000000E+00  8.00000000E-01
  8.00000000E-01  1.50000000E+00  1.50000000E+00  8.00000000E-01  8.00000000E-01
  1.50000000E+00  1.50000000E+00  8.00000000E-01  8.00000000E-01  1.50000000E+00
  1.50000000E+00  8.00000000E-01  8.00000000E-01  1.50000000E+00  1.50000000E+00
  8.00000000E-01  8.00000000E-01  1.50000000E+00  1.50000000E+00  8.00000000E-01
  8.00000000E-01  1.50000000E+00  1.50000000E+00  8.00000000E-01  8.00000000E-01
  1.50000000E+00  1.50000000E+00  8.00000000E-01  8.00000000E-01  1.50000000E+00
  1.50000000E+00  8.00000000E-01  8.00000000E-01  1.50000000E+00  1.50000000E+00
  8.00000000E-01  8.00000000E-01  1.50000000E+00  1.50000000E+00  8.00000000E-01
  8.00000000E-01  1.50000000E+00  1.50000000E+00  8.00000000E-01  8.00000000E-01
  1.50000000E+00  1.50000000E+00  8.00000000E-01  8.00000000E-01  1.50000000E+00
  1.50000000E+00  8.00000000E-01  8.00000000E-01  1.50000000E+00  1.50000000E+00
  8.00000000E-01  8.00000000E-01  1.50000000E+00  1.50000000E+00  8.00000000E-01
  8.00000000E-01  1.50000000E+00  1.50000000E+00  8.00000000E-01  8.00000000E-01
  1.50000000E+00  1.50000000E+00  8.00000000E-01  8.00000000E-01  1.50000000E+00
  1.50000000E+00  8.00000000E-01  8.00000000E-01  1.50000000E+00  1.50000000E+00
  8.00000000E-01  8.00000000E-01  1.50000000E+00  1.50000000E+00  8.00000000E-01
  8.00000000E-01  1.50000000E+00  1.50000000E+00  8.00000000E-01  8.00000000E-01
  1.50000000E+00  1.50000000E+00  8.00000000E-01  8.00000000E-01  1.50000000E+00
  1.50000000E+00  8.00000000E-01  8.00000000E-01  1.50000000E+00  1.50000000E+00
  8.00000000E-01  8.00000000E-01  1.50000000E+00  1.50000000E+00  8.00000000E-01
  8.00000000E-01  1.50000000E+00  1.50000000E+00  8.00000000E-01  8.00000000E-01
  1.50000000E+00  1.50000000E+00  8.00000000E-01  8.00000000E-01  1.50000000E+00
  1.50000000E+00  8.00000000E-01  8.00000000E-01  1.50000000E+00  1.50000000E+00
  8.00000000E-01  8.00000000E-01  1.50000000E+00  1.50000000E+00  8.00000000E-01
  8.00000000E-01  1.50000000E+00  1.50000000E+00  8.00000000E-01  8.00000000E-01
  1.50000000E+00  1.50000000E+00  8.00000000E-01  8.00000000E-01  1.50000000E+00
  1.50000000E+00  8.00000000E-01  8.00000000E-01  1.50000000E+00  1.50000000E+00
  8.00000000E-01  8.00000000E-01  1.50000000E+00  1.50000000E+00  8.00000000E-01
  8.00000000E-01  1.50000000E+00  1.50000000E+00  8.00000000E-01  8.00000000E-01
  1.50000000E+00  1.50000000E+00  8.00000000E-01  8.00000000E-01  1.50000000E+00
  1.50000000E+00  8.00000000E-01  8.00000000E-01  1.50000000E+00  1.50000000E+00
  8.00000000E-01  8.00000000E-01  1.50000000E+00  1.50000000E+00  8.00000000E-01
  8.00000000E-01  1.50000000E+00  1.50000000E+00  8.00000000E-01  8.00000000E-01
  1.50000000E+00  1.50000000E+00  8.00000000E-01  8.00000000E-01  1.50000000E+00
  1.50000000E+00  8.00000000E-01  8.00000000E-01  1.50000000E+00  1.50000000E+00
  8.00000000E-01  8.00000000E-01  1.50000000E+00  1.50000000E+00  8.00000000E-01
  8.00000000E-01  1.50000000E+00  1.50000000E+00  8.00000000E-01  8.00000000E-01
  1.50000000E+00  1.50000000E+00  8.00000000E-01  8.00000000E-01  1.50000000E+00
  1.50000000E+00  8.00000000E-01  8.00000000E-01  1.50000000E+00  1.50000000E+00
  8.00000000E-01  8.00000000E-01  1.50000000E+00  1.50000000E+00  8.00000000E-01
  8.00000000E-01  1.50000000E+00  1.50000000E+00  8.00000000E-01  8.00000000E-01
  1.50000000E+00  1.50000000E+00  8.00000000E-01  8.00000000E-01  1.50000000E+00
  1.50000000E+00  8.00000000E-01  8.00000000E-01  1.50000000E+00  1.50000000E+00
  8.00000000E-01  8.00000000E-01  1.50000000E+00  1.50000000E+00  8.00000000E-01
  8.00000000E-01  1.50000000E+00  1.50000000E+00  8.00000000E-01  8.00000000E-01
  1.50000000E+00  1.50000000E+00  8.00000000E-01  8.00000000E-01  1.50000000E+00
  1.50000000E+00  8.00000000E-01  8.00000000E-01  1.50000000E+00  1.50000000E+00
  8.00000000E-01  8.00000000E-01  1.50000000E+00  1.50000000E+00  8.00000000E-01
  8.00000000E-01  1.50000000E+00  1.50000000E+00  8.00000000E-01  8.00000000E-01
  1.50000000E+00  1.50000000E+00  8.00000000E-01  8.00000000E-01  1.50000000E+00
  1.50000000E+00  8.00000000E-01  8.00000000E-01  1.50000000E+00  1.50000000E+00
  8.00000000E-01  8.00000000E-01  1.50000000E+00  1.50000000E+00  8.00000000E-01
  8.00000000E-01  1.50000000E+00  1.50000000E+00  8.00000000E-01  8.00000000E-01
  1.50000000E+00  1.50000000E+00  8.00000000E-01  8.00000000E-01  1.50000000E+00
  1.50000000E+00  8.00000000E-01  8.00000000E-01  1.50000000E+00  1.50000000E+00
  8.00000000E-01  8.00000000E-01  1.50000000E+00  1.50000000E+00  8.00000000E-01
  8.00000000E-01  1.50000000E+00  1.50000000E+00  8.00000000E-01  8.00000000E-01
  1.50000000E+00  1.50000000E+00  8.00000000E-01  8.00000000E-01  1.50000000E+00
  1.50000000E+00  8.00000000E-01  8.00000000E-01  1.50000000E+00  1.50000000E+00
  8.00000000E-01  8.00000000E-01  1.50000000E+00  1.50000000E+00  8.00000000E-01
  8.00000000E-01  1.50000000E+00  1.50000000E+00  8.00000000E-01  8.00000000E-01
  1.50000000E+00  1.50000000E+00  8.00000000E-01  8.00000000E-01  1.50000000E+00
  1.50000000E+00  8.00000000E-01  8.00000000E-01  1.50000000E+00  1.50000000E+00
  8.00000000E-01  8.00000000E-01  1.50000000E+00  1.50000000E+00  8.00000000E-01
  8.00000000E-01  1.50000000E+00  1.50000000E+00  8.00000000E-01  8.00000000E-01
  1.50000000E+00  1.50000000E+00  8.00000000E-01  8.00000000E-01  1.50000000E+00
  1.50000000E+00  8.00000000E-01  8.00000000E-01  1.50000000E+00  1.50000000E+00
  8.00000000E-01  8.00000000E-01  1.50000000E+00  1.50000000E+00  8.00000000E-01
  8.00000000E-01  1.50000000E+00  1.50000000E+00  8.00000000E-01  8.00000000E-01
  1.50000000E+00  1.50000000E+00  8.00000000E-01  8.00000000E-01  1.50000000E+00
  1.50000000E+00  8.00000000E-01  8.00000000E-01  1.50000000E+00  1.50000000E+00
  8.00000000E-01  8.00000000E-01  1.50000000E+00  1.50000000E+00  8.00000000E-01
  8.00000000E-01  1.50000000E+00  1.50000000E+00  8.00000000E-01  8.00000000E-01
  1.50000000E+00  1.50000000E+00  8.00000000E-01  8.00000000E-01  1.50000000E+00
  1.50000000E+00  8.00000000E-01  8.00000000E-01  1.50000000E+00  1.50000000E+00
  8.00000000E-01  8.00000000E-01  1.50000000E+00  1.50000000E+00  8.00000000E-01
  8.00000000E-01  1.50000000E+00  1.50000000E+00  8.00000000E-01  8.00000000E-01
  1.50000000E+00  1.50000000E+00  8.00000000E-01  8.00000000E-01  1.50000000E+00
  1.50000000E+00  8.00000000E-01  8.00000000E-01  1.50000000E+00  1.50000000E+00
  8.00000000E-01  8.00000000E-01  1.50000000E+00  1.50000000E+00  8.00000000E-01
  8.00000000E-01  1.50000000E+00  1.50000000E+00  8.00000000E-01  8.00000000E-01
  1.50000000E+00  1.50000000E+00  8.00000000E-01  8.00000000E-01  1.50000000E+00
  1.50000000E+00  8.00000000E-01  8.00000000E-01  1.50000000E+00  1.50000000E+00
  8.00000000E-01  8.00000000E-01  1.50000000E+00  1.50000000E+00  8.00000000E-01
  8.00000000E-01  1.50000000E+00  1.50000000E+00  8.00000000E-01  8.00000000E-01
  1.50000000E+00  1.50000000E+00  8.00000000E-01  8.00000000E-01  1.50000000E+00
  1.50000000E+00  8.00000000E-01  8.00000000E-01  1.50000000E+00  1.50000000E+00
  8.00000000E-01  8.00000000E-01  1.50000000E+00  1.50000000E+00  8.00000000E-01
  8.00000000E-01  1.50000000E+00  1.50000000E+00  8.00000000E-01  8.00000000E-01
  1.50000000E+00  1.50000000E+00  8.00000000E-01  8.00000000E-01  1.50000000E+00
  1.50000000E+00  8.00000000E-01  8.00000000E-01  1.50000000E+00  1.50000000E+00
  8.00000000E-01  8.00000000E-01  1.50000000E+00  1.50000000E+00  8.00000000E-01
  8.00000000E-01  1.50000000E+00  1.50000000E+00  8.00000000E-01  8.00000000E-01
  1.50000000E+00  1.50000000E+00  8.00000000E-01  8.00000000E-01  1.50000000E+00
  1.50000000E+00  8.00000000E-01  8.00000000E-01  1.50000000E+00  1.50000000E+00
  8.00000000E-01  8.00000000E-01  1.50000000E+00  1.50000000E+00  8.00000000E-01
  8.00000000E-01  1.50000000E+00  1.50000000E+00  8.00000000E-01  8.00000000E-01
  1.50000000E+00  1.50000000E+00  8.00000000E-01  8.00000000E-01  1.50000000E+00
  1.50000000E+00  8.00000000E-01  8.00000000E-01  1.50000000E+00  1.50000000E+00
  8.00000000E-01  8.00000000E-01  1.50000000E+00  1.50000000E+00  8.00000000E-01
  8.00000000E-01  1.50000000E+00  1.50000000E+00  8.00000000E-01  8.00000000E-01
  1.50000000E+00  1.50000000E+00  8.00000000E-01  8.00000000E-01  1.50000000E+00
  1.50000000E+00  8.00000000E-01  8.00000000E-01  1.50000000E+00  1.50000000E+00
  8.00000000E-01  8.00000000E-01  1.50000000E+00  1.50000000E+00  8.00000000E-01
  8.00000000E-01  1.50000000E+00  1.50000000E+00  8.00000000E-01  8.00000000E-01
  1.50000000E+00  1.50000000E+00  8.00000000E-01  8.00000000E-01  1.50000000E+00
  1.50000000E+00  8.00000000E-01  8.00000000E-01  1.50000000E+00  1.50000000E+00
  8.00000000E-01  8.00000000E-01  1.50000000E+00  1.50000000E+00  8.00000000E-01
  8.00000000E-01  1.50000000E+00  1.50000000E+00  8.00000000E-01  8.00000000E-01
  1.50000000E+00  1.50000000E+00  8.00000000E-01  8.00000000E-01  1.50000000E+00
  1.50000000E+00  8.00000000E-01  8.00000000E-01  1.50000000E+00  1.50000000E+00
  8.00000000E-01  8.00000000E-01  1.50000000E+00  1.50000000E+00  8.00000000E-01
  8.00000000E-01  1.50000000E+00  1.50000000E+00  8.00000000E-01  8.00000000E-01
  1.50000000E+00  1.50000000E+00  8.00000000E-01  8.00000000E-01  1.50000000E+00
  1.50000000E+00  8.00000000E-01  8.00000000E-01  1.50000000E+00  1.50000000E+00
  8.00000000E-01  8.00000000E-01  1.50000000E+00  1.50000000E+00  8.00000000E-01
  8.00000000E-01  1.50000000E+00  1.50000000E+00  8.00000000E-01  8.00000000E-01
  1.50000000E+00  1.50000000E+00  8.00000000E-01  8.00000000E-01  1.50000000E+00
  1.50000000E+00  8.00000000E-01  8.00000000E-01  1.50000000E+00  1.50000000E+00
  8.00000000E-01  8.00000000E-01  1.50000000E+00  1.50000000E+00  8.00000000E-01
  8.00000000E-01  1.50000000E+00  1.50000000E+00  8.00000000E-01  8.00000000E-01
  1.50000000E+00  1.50000000E+00  8.00000000E-01  8.00000000E-01  1.50000000E+00
  1.50000000E+00  8.00000000E-01  8.00000000E-01  1.50000000E+00  1.50000000E+00
  8.00000000E-01  8.00000000E-01  1.50000000E+00  1.50000000E+00  8.00000000E-01
  8.00000000E-01  1.50000000E+00  1.50000000E+00  8.00000000E-01  8.00000000E-01
  1.50000000E+00  1.50000000E+00  8.00000000E-01  8.00000000E-01  1.50000000E+00
  1.50000000E+00  8.00000000E-01  8.00000000E-01  1.50000000E+00  1.50000000E+00
  8.00000000E-01  8.00000000E-01  1.50000000E+00  1.50000000E+00  8.00000000E-01
  8.00000000E-01  1.50000000E+00  1.50000000E+00  8.00000000E-01  8.00000000E-01
  1.50000000E+00  1.50000000E+00  8.00000000E-01  8.00000000E-01  1.50000000E+00
  1.50000000E+00  8.00000000E-01  8.00000000E-01  1.50000000E+00  1.50000000E+00
  8.00000000E-01  8.00000000E-01  1.50000000E+00  1.50000000E+00  8.00000000E-01
  8.00000000E-01  1.50000000E+00  1.50000000E+00  8.00000000E-01  8.00000000E-01
  1.50000000E+00  1.50000000E+00  8.00000000E-01  8.00000000E-01  1.50000000E+00
  1.50000000E+00  8.00000000E-01  8.00000000E-01  1.50000000E+00  1.50000000E+00
  8.00000000E-01  8.00000000E-01  1.50000000E+00  1.50000000E+00  8.00000000E-01
  8.00000000E-01  1.50000000E+00  1.50000000E+00  8.00000000E-01  8.00000000E-01
  1.50000000E+00  1.50000000E+00  8.00000000E-01  8.00000000E-01  1.50000000E+00
  1.50000000E+00  8.00000000E-01  8.00000000E-01  1.50000000E+00  1.50000000E+00
  8.00000000E-01  8.00000000E-01  1.50000000E+00  1.50000000E+00  8.00000000E-01
  8.00000000E-01  1.50000000E+00  1.50000000E+00  8.00000000E-01  8.00000000E-01
  1.50000000E+00  1.50000000E+00  8.00000000E-01  8.00000000E-01  1.50000000E+00
  1.50000000E+00  8.00000000E-01  8.00000000E-01  1.50000000E+00  1.50000000E+00
  8.00000000E-01  8.00000000E-01  1.50000000E+00  1.50000000E+00  8.00000000E-01
  8.00000000E-01  1.50000000E+00  1.50000000E+00  8.00000000E-01  8.00000000E-01
  1.50000000E+00  1.50000000E+00  8.00000000E-01  8.00000000E-01  1.50000000E+00
  1.50000000E+00  8.00000000E-01  8.00000000E-01  1.50000000E+00  1.50000000E+00
  8.00000000E-01  8.00000000E-01  1.50000000E+00  1.50000000E+00  8.00000000E-01
  8.00000000E-01  1.50000000E+00  1.50000000E+00  8.00000000E-01  8.00000000E-01
  1.50000000E+00  1.50000000E+00  8.00000000E-01  8.00000000E-01  1.50000000E+00
  1.50000000E+00  8.00000000E-01  8.00000000E-01  1.50000000E+00  1.50000000E+00
  8.00000000E-01  8.00000000E-01  1.50000000E+00  1.50000000E+00  8.00000000E-01
  8.00000000E-01  1.50000000E+00  1.50000000E+00  8.00000000E-01  8.00000000E-01
  1.50000000E+00  1.50000000E+00  8.00000000E-01  8.00000000E-01  1.50000000E+00
  1.50000000E+00  8.00000000E-01  8.00000000E-01  1.50000000E+00  1.50000000E+00
  8.00000000E-01  8.00000000E-01  1.50000000E+00  1.50000000E+00  8.00000000E-01
  8.00000000E-01  1.50000000E+00  1.50000000E+00  8.00000000E-01  8.00000000E-01
  1.50000000E+00  1.50000000E+00  8.00000000E-01  8.00000000E-01  1.50000000E+00
  1.50000000E+00  8.00000000E-01  8.00000000E-01  1.50000000E+00  1.50000000E+00
  8.00000000E-01  8.00000000E-01  1.50000000E+00  1.50000000E+00  8.00000000E-01
  8.00000000E-01  1.50000000E+00  1.50000000E+00  8.00000000E-01  8.00000000E-01
  1.50000000E+00  1.50000000E+00  8.00000000E-01  8.00000000E-01  1.50000000E+00
  1.50000000E+00  8.00000000E-01  8.00000000E-01  1.50000000E+00  1.50000000E+00
  8.00000000E-01  8.00000000E-01  1.50000000E+00  1.50000000E+00  8.00000000E-01
  8.00000000E-01  1.50000000E+00  1.50000000E+00  8.00000000E-01  8.00000000E-01
  1.50000000E+00  1.50000000E+00  8.00000000E-01  8.00000000E-01  1.50000000E+00
  1.50000000E+00  8.00000000E-01  8.00000000E-01  1.50000000E+00  1.50000000E+00
  8.00000000E-01  8.00000000E-01  1.50000000E+00  1.50000000E+00  8.00000000E-01
  8.00000000E-01  1.50000000E+00  1.50000000E+00  8.00000000E-01  8.00000000E-01
  1.50000000E+00  1.50000000E+00  8.00000000E-01  8.00000000E-01  1.50000000E+00
  1.50000000E+00  8.00000000E-01  8.00000000E-01  1.50000000E+00  1.50000000E+00
  8.00000000E-01  8.00000000E-01  1.50000000E+00  1.50000000E+00  8.00000000E-01
  8.00000000E-01  1.50000000E+00  1.50000000E+00  8.00000000E-01  8.00000000E-01
  1.50000000E+00  1.50000000E+00  8.00000000E-01  8.00000000E-01  1.50000000E+00
  1.50000000E+00  8.00000000E-01  8.00000000E-01  1.50000000E+00  1.50000000E+00
  8.00000000E-01  8.00000000E-01  1.50000000E+00  1.50000000E+00  8.00000000E-01
  8.00000000E-01  1.50000000E+00  1.50000000E+00  8.00000000E-01  8.00000000E-01
  1.50000000E+00  1.50000000E+00  8.00000000E-01  8.00000000E-01  1.50000000E+00
  1.50000000E+00  8.00000000E-01  8.00000000E-01  1.50000000E+00  1.50000000E+00
  8.00000000E-01  8.00000000E-01  1.50000000E+00  1.50000000E+00  8.00000000E-01
  8.00000000E-01  1.50000000E+00  1.50000000E+00  8.00000000E-01  8.00000000E-01
  1.50000000E+00  1.50000000E+00  8.00000000E-01  8.00000000E-01  1.50000000E+00
  1.50000000E+00  8.00000000E-01  8.00000000E-01  1.50000000E+00  1.50000000E+00
  8.00000000E-01  8.00000000E-01  1.50000000E+00  1.50000000E+00  8.00000000E-01
  8.00000000E-01  1.50000000E+00  1.50000000E+00  8.00000000E-01  8.00000000E-01
  1.50000000E+00  1.50000000E+00  8.00000000E-01  8.00000000E-01  1.50000000E+00
  1.50000000E+00  8.00000000E-01  8.00000000E-01  1.50000000E+00  1.50000000E+00
  8.00000000E-01  8.00000000E-01  1.50000000E+00  1.50000000E+00  8.00000000E-01
  8.00000000E-01  1.50000000E+00  1.50000000E+00  8.00000000E-01  8.00000000E-01
  1.50000000E+00  1.50000000E+00  8.00000000E-01  8.00000000E-01  1.50000000E+00
  1.50000000E+00  8.00000000E-01  8.00000000E-01  1.50000000E+00  1.50000000E+00
  8.00000000E-01  8.00000000E-01  1.50000000E+00  1.50000000E+00  8.00000000E-01
  8.00000000E-01  1.50000000E+00  1.50000000E+00  8.00000000E-01  8.00000000E-01
  1.50000000E+00  1.50000000E+00  8.00000000E-01  8.00000000E-01  1.50000000E+00
  1.50000000E+00  8.00000000E-01  8.00000000E-01  1.50000000E+00  1.50000000E+00
  8.00000000E-01  8.00000000E-01  1.50000000E+00  1.50000000E+00  8.00000000E-01
  8.00000000E-01  1.50000000E+00  1.50000000E+00  8.00000000E-01  8.00000000E-01
  1.50000000E+00  1.50000000E+00  8.00000000E-01  8.00000000E-01  1.50000000E+00
  1.50000000E+00  8.00000000E-01  8.00000000E-01  1.50000000E+00  1.50000000E+00
  8.00000000E-01  8.00000000E-01  1.50000000E+00  1.50000000E+00  8.00000000E-01
  8.00000000E-01  1.50000000E+00  1.50000000E+00  8.00000000E-01  8.00000000E-01
  1.50000000E+00  1.50000000E+00  8.00000000E-01  8.00000000E-01  1.50000000E+00
  1.50000000E+00  8.00000000E-01  8.00000000E-01  1.50000000E+00  1.50000000E+00
  8.00000000E-01  8.00000000E-01  1.50000000E+00  1.50000000E+00  8.00000000E-01
  8.00000000E-01  1.50000000E+00  1.50000000E+00  8.00000000E-01  8.00000000E-01
  1.50000000E+00  1.50000000E+00  8.00000000E-01  8.00000000E-01  1.50000000E+00
  1.50000000E+00  8.00000000E-01  8.00000000E-01  1.50000000E+00  1.50000000E+00
  8.00000000E-01  8.00000000E-01  1.50000000E+00  1.50000000E+00  8.00000000E-01
  8.00000000E-01  1.50000000E+00  1.50000000E+00  8.00000000E-01  8.00000000E-01
  1.50000000E+00  1.50000000E+00  8.00000000E-01  8.00000000E-01  1.50000000E+00
  1.50000000E+00  8.00000000E-01  8.00000000E-01  1.50000000E+00  1.50000000E+00
  8.00000000E-01  8.00000000E-01  1.50000000E+00  1.50000000E+00  8.00000000E-01
  8.00000000E-01  1.50000000E+00  1.50000000E+00  8.00000000E-01  8.00000000E-01
  1.50000000E+00  1.50000000E+00  8.00000000E-01  8.00000000E-01  1.50000000E+00
  1.50000000E+00  8.00000000E-01  8.00000000E-01  1.50000000E+00  1.50000000E+00
  8.00000000E-01  8.00000000E-01  1.50000000E+00  1.50000000E+00  8.00000000E-01
  8.00000000E-01  1.50000000E+00  1.50000000E+00  8.00000000E-01  8.00000000E-01
  1.50000000E+00  1.50000000E+00  8.00000000E-01  8.00000000E-01  1.50000000E+00
  1.50000000E+00  8.00000000E-01  8.00000000E-01  1.50000000E+00  1.50000000E+00
  8.00000000E-01  8.00000000E-01  1.50000000E+00  1.50000000E+00  8.00000000E-01
  8.00000000E-01  1.50000000E+00  1.50000000E+00  8.00000000E-01  8.00000000E-01
  1.50000000E+00  1.50000000E+00  8.00000000E-01  8.00000000E-01  1.50000000E+00
  1.50000000E+00  8.00000000E-01  8.00000000E-01  1.50000000E+00  1.50000000E+00
  8.00000000E-01  8.00000000E-01  1.50000000E+00  1.50000000E+00  8.00000000E-01
  8.00000000E-01  1.50000000E+00  1.50000000E+00  8.00000000E-01  8.00000000E-01
  1.50000000E+00  1.50000000E+00  8.00000000E-01  8.00000000E-01  1.50000000E+00
  1.50000000E+00  8.00000000E-01  8.00000000E-01  1.50000000E+00  1.50000000E+00
  8.00000000E-01  8.00000000E-01  1.50000000E+00  1.50000000E+00  8.00000000E-01
  8.00000000E-01  1.50000000E+00  1.50000000E+00  8.00000000E-01  8.00000000E-01
  1.50000000E+00  1.50000000E+00  8.00000000E-01  8.00000000E-01  1.50000000E+00
  1.50000000E+00  8.00000000E-01  8.00000000E-01  1.50000000E+00  1.50000000E+00
  8.00000000E-01  8.00000000E-01  1.50000000E+00  1.50000000E+00  8.00000000E-01
  8.00000000E-01  1.50000000E+00  1.50000000E+00  8.00000000E-01  8.00000000E-01
  1.50000000E+00  1.50000000E+00  8.00000000E-01  8.00000000E-01  1.50000000E+00
  1.50000000E+00  8.00000000E-01  8.00000000E-01  1.50000000E+00  1.50000000E+00
  8.00000000E-01  8.00000000E-01  1.50000000E+00  1.50000000E+00  8.00000000E-01
  8.00000000E-01  1.50000000E+00  1.50000000E+00  8.00000000E-01  8.00000000E-01
  1.50000000E+00  1.50000000E+00  8.00000000E-01  8.00000000E-01  1.50000000E+00
  1.50000000E+00  8.00000000E-01  8.00000000E-01  1.50000000E+00  1.50000000E+00
  8.00000000E-01  8.00000000E-01  1.50000000E+00  1.50000000E+00  8.00000000E-01
  8.00000000E-01  1.50000000E+00  1.50000000E+00  8.00000000E-01  8.00000000E-01
  1.50000000E+00  1.50000000E+00  8.00000000E-01  8.00000000E-01  1.50000000E+00
  1.50000000E+00  8.00000000E-01  8.00000000E-01  1.50000000E+00  1.50000000E+00
  8.00000000E-01  8.00000000E-01  1.50000000E+00  1.50000000E+00  8.00000000E-01
  8.00000000E-01  1.50000000E+00  1.50000000E+00  8.00000000E-01  8.00000000E-01
  1.50000000E+00  1.50000000E+00  8.00000000E-01  8.00000000E-01  1.50000000E+00
  1.50000000E+00  8.00000000E-01  8.00000000E-01  1.50000000E+00  1.50000000E+00
  8.00000000E-01  8.00000000E-01  1.50000000E+00  1.50000000E+00  8.00000000E-01
  8.00000000E-01  1.50000000E+00  1.50000000E+00  8.00000000E-01  8.00000000E-01
  1.50000000E+00  1.50000000E+00  8.00000000E-01  8.00000000E-01  1.50000000E+00
  1.50000000E+00  8.00000000E-01  8.00000000E-01  1.50000000E+00  1.50000000E+00
  8.00000000E-01  8.00000000E-01  1.50000000E+00  1.50000000E+00  8.00000000E-01
  8.00000000E-01  1.50000000E+00  1.50000000E+00  8.00000000E-01  8.00000000E-01
  1.50000000E+00  1.50000000E+00  8.00000000E-01  8.00000000E-01  1.50000000E+00
  1.50000000E+00  8.00000000E-01  8.00000000E-01  1.50000000E+00  1.50000000E+00
  8.00000000E-01  8.00000000E-01  1.50000000E+00  1.50000000E+00  8.00000000E-01
  8.00000000E-01  1.50000000E+00  1.50000000E+00  8.00000000E-01  8.00000000E-01
  1.50000000E+00  1.50000000E+00  8.00000000E-01  8.00000000E-01  1.50000000E+00
  1.50000000E+00  8.00000000E-01  8.00000000E-01  1.50000000E+00  1.50000000E+00
  8.00000000E-01  8.00000000E-01  1.50000000E+00  1.50000000E+00  8.00000000E-01
  8.00000000E-01  1.50000000E+00  1.50000000E+00  8.00000000E-01  8.00000000E-01
  1.50000000E+00  1.50000000E+00  8.00000000E-01  8.00000000E-01  1.50000000E+00
  1.50000000E+00  8.00000000E-01  8.00000000E-01  1.50000000E+00  1.50000000E+00
  8.00000000E-01  8.00000000E-01  1.50000000E+00  1.50000000E+00  8.00000000E-01
  8.00000000E-01  1.50000000E+00  1.50000000E+00  8.00000000E-01  8.00000000E-01
  1.50000000E+00  1.50000000E+00  8.00000000E-01  8.00000000E-01  1.50000000E+00
  1.50000000E+00  8.00000000E-01  8.00000000E-01  1.50000000E+00  1.50000000E+00
  8.00000000E-01  8.00000000E-01  1.50000000E+00  1.50000000E+00  8.00000000E-01
  8.00000000E-01  1.50000000E+00  1.50000000E+00  8.00000000E-01  8.00000000E-01
  1.50000000E+00  1.50000000E+00  8.00000000E-01  8.00000000E-01  1.50000000E+00
  1.50000000E+00  8.00000000E-01  8.00000000E-01  1.50000000E+00  1.50000000E+00
  8.00000000E-01  8.00000000E-01  1.50000000E+00  1.50000000E+00  8.00000000E-01
  8.00000000E-01  1.50000000E+00  1.50000000E+00  8.00000000E-01  8.00000000E-01
  1.50000000E+00  1.50000000E+00  8.00000000E-01  8.00000000E-01  1.50000000E+00
  1.50000000E+00  8.00000000E-01  8.00000000E-01  1.50000000E+00  1.50000000E+00
  8.00000000E-01  8.00000000E-01  1.50000000E+00  1.50000000E+00  8.00000000E-01
  8.00000000E-01  1.50000000E+00  1.50000000E+00  8.00000000E-01  8.00000000E-01
  1.50000000E+00  1.50000000E+00  8.00000000E-01  8.00000000E-01  1.50000000E+00
  1.50000000E+00  8.00000000E-01  8.00000000E-01  1.50000000E+00  1.50000000E+00
  8.00000000E-01  8.00000000E-01  1.50000000E+00  1.50000000E+00  8.00000000E-01
  8.00000000E-01  1.50000000E+00  1.50000000E+00  8.00000000E-01  8.00000000E-01
  1.50000000E+00  1.50000000E+00  8.00000000E-01  8.00000000E-01  1.50000000E+00
  1.50000000E+00  8.00000000E-01  8.00000000E-01  1.50000000E+00  1.50000000E+00
  8.00000000E-01  8.00000000E-01  1.50000000E+00  1.50000000E+00  8.00000000E-01
  8.00000000E-01  1.50000000E+00  1.50000000E+00  8.00000000E-01  8.00000000E-01
  1.50000000E+00  1.50000000E+00  8.00000000E-01  8.00000000E-01  1.50000000E+00
  1.50000000E+00  8.00000000E-01  8.00000000E-01  1.50000000E+00  1.50000000E+00
  8.00000000E-01  8.00000000E-01  1.50000000E+00  1.50000000E+00  8.00000000E-01
  8.00000000E-01  1.50000000E+00  1.50000000E+00  8.00000000E-01  8.00000000E-01
  1.50000000E+00  1.50000000E+00  8.00000000E-01  8.00000000E-01  1.50000000E+00
  1.50000000E+00  8.00000000E-01  8.00000000E-01  1.50000000E+00  1.50000000E+00
  8.00000000E-01  8.00000000E-01  1.50000000E+00  1.50000000E+00  8.00000000E-01
  8.00000000E-01  1.50000000E+00  1.50000000E+00  8.00000000E-01  8.00000000E-01
  1.50000000E+00  1.50000000E+00  8.00000000E-01  8.00000000E-01  1.50000000E+00
  1.50000000E+00  8.00000000E-01  8.00000000E-01  1.50000000E+00  1.50000000E+00
  8.00000000E-01  8.00000000E-01  1.50000000E+00  1.50000000E+00  8.00000000E-01
  8.00000000E-01  1.50000000E+00  1.50000000E+00  8.00000000E-01  8.00000000E-01
  1.50000000E+00  1.50000000E+00  8.00000000E-01  8.00000000E-01  1.50000000E+00
  1.50000000E+00  8.00000000E-01  8.00000000E-01  1.50000000E+00  1.50000000E+00
  8.00000000E-01  8.00000000E-01  1.50000000E+00  1.50000000E+00  8.00000000E-01
  8.00000000E-01  1.50000000E+00  1.50000000E+00  8.00000000E-01  8.00000000E-01
  1.50000000E+00  1.50000000E+00  8.00000000E-01  8.00000000E-01  1.50000000E+00
  1.50000000E+00  8.00000000E-01  8.00000000E-01  1.50000000E+00  1.50000000E+00
  8.00000000E-01  8.00000000E-01  1.50000000E+00  1.50000000E+00  8.00000000E-01
  8.00000000E-01  1.50000000E+00  1.50000000E+00  8.00000000E-01  8.00000000E-01
  1.50000000E+00  1.50000000E+00  8.00000000E-01  8.00000000E-01  1.50000000E+00
  1.50000000E+00  8.00000000E-01  8.00000000E-01  1.50000000E+00  1.50000000E+00
  8.00000000E-01  8.00000000E-01  1.50000000E+00  1.50000000E+00  8.00000000E-01
  8.00000000E-01  1.50000000E+00  1.50000000E+00  8.00000000E-01  8.00000000E-01
  1.50000000E+00  1.50000000E+00  8.00000000E-01  8.00000000E-01  1.50000000E+00
  1.50000000E+00  8.00000000E-01  8.00000000E-01  1.50000000E+00  1.50000000E+00
  8.00000000E-01  8.00000000E-01  1.50000000E+00  1.50000000E+00  8.00000000E-01
  8.00000000E-01  1.50000000E+00  1.50000000E+00  8.00000000E-01  8.00000000E-01
  1.50000000E+00  1.50000000E+00  8.00000000E-01  8.00000000E-01  1.50000000E+00
  1.50000000E+00  8.00000000E-01  8.00000000E-01  1.50000000E+00  1.50000000E+00
  8.00000000E-01  8.00000000E-01  1.50000000E+00  1.50000000E+00  8.00000000E-01
  8.00000000E-01  1.50000000E+00  1.50000000E+00  8.00000000E-01  8.00000000E-01
  1.50000000E+00  1.50000000E+00  8.00000000E-01  8.00000000E-01  1.50000000E+00
  1.50000000E+00  8.00000000E-01  8.00000000E-01  1.50000000E+00  1.50000000E+00
  8.00000000E-01  8.00000000E-01  1.50000000E+00  1.50000000E+00  8.00000000E-01
  8.00000000E-01  1.50000000E+00  1.50000000E+00  8.00000000E-01  8.00000000E-01
  1.50000000E+00  1.50000000E+00  8.00000000E-01  8.00000000E-01  1.50000000E+00
  1.50000000E+00  8.00000000E-01  8.00000000E-01  1.50000000E+00  1.50000000E+00
  8.00000000E-01  8.00000000E-01  1.50000000E+00  1.50000000E+00  8.00000000E-01
  8.00000000E-01  1.50000000E+00  1.50000000E+00  8.00000000E-01  8.00000000E-01
  1.50000000E+00  1.50000000E+00  8.00000000E-01  8.00000000E-01  1.50000000E+00
  1.50000000E+00  8.00000000E-01  8.00000000E-01  1.50000000E+00  1.50000000E+00
  8.00000000E-01  8.00000000E-01  1.50000000E+00  1.50000000E+00  8.00000000E-01
  8.00000000E-01  1.50000000E+00  1.50000000E+00  8.00000000E-01  8.00000000E-01
  1.50000000E+00  1.50000000E+00  8.00000000E-01  8.00000000E-01  1.50000000E+00
  1.50000000E+00  8.00000000E-01  8.00000000E-01  1.50000000E+00  1.50000000E+00
  8.00000000E-01  8.00000000E-01  1.50000000E+00  1.50000000E+00  8.00000000E-01
  8.00000000E-01  1.50000000E+00  1.50000000E+00  8.00000000E-01  8.00000000E-01
  1.50000000E+00  1.50000000E+00  8.00000000E-01  8.00000000E-01  1.50000000E+00
  1.50000000E+00  8.00000000E-01  8.00000000E-01  1.50000000E+00  1.50000000E+00
  8.00000000E-01  8.00000000E-01  1.50000000E+00  1.50000000E+00  8.00000000E-01
  8.00000000E-01  1.50000000E+00  1.50000000E+00  8.00000000E-01  8.00000000E-01
  1.50000000E+00  1.50000000E+00  8.00000000E-01  8.00000000E-01  1.50000000E+00
  1.50000000E+00  8.00000000E-01  8.00000000E-01  1.50000000E+00  1.50000000E+00
  8.00000000E-01  8.00000000E-01  1.50000000E+00  1.50000000E+00  8.00000000E-01
  8.00000000E-01  1.50000000E+00  1.50000000E+00  8.00000000E-01  8.00000000E-01
  1.50000000E+00  1.50000000E+00  8.00000000E-01  8.00000000E-01  1.50000000E+00
  1.50000000E+00  8.00000000E-01  8.00000000E-01  1.50000000E+00  1.50000000E+00
  8.00000000E-01  8.00000000E-01  1.50000000E+00  1.50000000E+00  8.00000000E-01
  8.00000000E-01  1.50000000E+00  1.50000000E+00  8.00000000E-01  8.00000000E-01
  1.50000000E+00  1.50000000E+00  8.00000000E-01  8.00000000E-01  1.50000000E+00
  1.50000000E+00  8.00000000E-01  8.00000000E-01  1.50000000E+00  1.50000000E+00
  8.00000000E-01  8.00000000E-01  1.50000000E+00  1.50000000E+00  8.00000000E-01
  8.00000000E-01  1.50000000E+00  1.50000000E+00  8.00000000E-01  8.00000000E-01
  1.50000000E+00  1.50000000E+00  8.00000000E-01  8.00000000E-01  1.50000000E+00
  1.50000000E+00  8.00000000E-01  8.00000000E-01  1.50000000E+00  1.50000000E+00
  8.00000000E-01  8.00000000E-01  1.50000000E+00  1.50000000E+00  8.00000000E-01
  8.00000000E-01  1.50000000E+00  1.50000000E+00  8.00000000E-01  8.00000000E-01
  1.50000000E+00  1.50000000E+00  8.00000000E-01  8.00000000E-01  1.50000000E+00
  1.50000000E+00  8.00000000E-01  8.00000000E-01  1.50000000E+00  1.50000000E+00
  8.00000000E-01  8.00000000E-01  1.50000000E+00  1.50000000E+00  8.00000000E-01
  8.00000000E-01  1.50000000E+00  1.50000000E+00  8.00000000E-01  8.00000000E-01
  1.50000000E+00  1.50000000E+00  8.00000000E-01  8.00000000E-01  1.50000000E+00
  1.50000000E+00  8.00000000E-01  8.00000000E-01  1.50000000E+00  1.50000000E+00
  8.00000000E-01  8.00000000E-01  1.50000000E+00  1.50000000E+00  8.00000000E-01
  8.00000000E-01  1.50000000E+00  1.50000000E+00  8.00000000E-01  8.00000000E-01
  1.50000000E+00  1.50000000E+00  8.00000000E-01  8.00000000E-01  1.50000000E+00
  1.50000000E+00  8.00000000E-01  8.00000000E-01  1.50000000E+00  1.50000000E+00
  8.00000000E-01  8.00000000E-01  1.50000000E+00  1.50000000E+00  8.00000000E-01
  8.00000000E-01  1.50000000E+00  1.50000000E+00  8.00000000E-01  8.00000000E-01
  1.50000000E+00  1.50000000E+00  8.00000000E-01  8.00000000E-01  1.50000000E+00
  1.50000000E+00  8.00000000E-01  8.00000000E-01  1.50000000E+00  1.50000000E+00
  8.00000000E-01  8.00000000E-01  1.50000000E+00  1.50000000E+00  8.00000000E-01
  8.00000000E-01  1.50000000E+00  1.50000000E+00  8.00000000E-01  8.00000000E-01
  1.50000000E+00  1.50000000E+00  8.00000000E-01  8.00000000E-01  1.50000000E+00
  1.50000000E+00  8.00000000E-01  8.00000000E-01  1.50000000E+00  1.50000000E+00
  8.00000000E-01  8.00000000E-01  1.50000000E+00  1.50000000E+00  8.00000000E-01
  8.00000000E-01  1.50000000E+00  1.50000000E+00  8.00000000E-01  8.00000000E-01
  1.50000000E+00  1.50000000E+00  8.00000000E-01  8.00000000E-01  1.50000000E+00
  1.50000000E+00  8.00000000E-01  8.00000000E-01  1.50000000E+00  1.50000000E+00
  8.00000000E-01  8.00000000E-01  1.50000000E+00  1.50000000E+00  8.00000000E-01
  8.00000000E-01  1.50000000E+00  1.50000000E+00  8.00000000E-01  8.00000000E-01
  1.50000000E+00  1.50000000E+00  8.00000000E-01  8.00000000E-01  1.50000000E+00
  1.50000000E+00  8.00000000E-01  8.00000000E-01  1.50000000E+00  1.50000000E+00
  8.00000000E-01  8.00000000E-01  1.50000000E+00  1.50000000E+00  8.00000000E-01
  8.00000000E-01  1.50000000E+00  1.50000000E+00  8.00000000E-01  8.00000000E-01
  1.50000000E+00  1.50000000E+00  8.00000000E-01  8.00000000E-01  1.50000000E+00
  1.50000000E+00  8.00000000E-01  8.00000000E-01  1.50000000E+00  1.50000000E+00
  8.00000000E-01  8.00000000E-01  1.50000000E+00  1.50000000E+00  8.00000000E-01
  8.00000000E-01  1.50000000E+00  1.50000000E+00  8.00000000E-01  8.00000000E-01
  1.50000000E+00  1.50000000E+00  8.00000000E-01  8.00000000E-01  1.50000000E+00
  1.50000000E+00  8.00000000E-01  8.00000000E-01  1.50000000E+00  1.50000000E+00
  8.00000000E-01  8.00000000E-01  1.50000000E+00  1.50000000E+00  8.00000000E-01
  8.00000000E-01  1.50000000E+00  1.50000000E+00  8.00000000E-01  8.00000000E-01
  1.50000000E+00  1.50000000E+00  8.00000000E-01  8.00000000E-01  1.50000000E+00
  1.50000000E+00  8.00000000E-01  8.00000000E-01  1.50000000E+00  1.50000000E+00
  8.00000000E-01  8.00000000E-01  1.50000000E+00  1.50000000E+00  8.00000000E-01
  8.00000000E-01  1.50000000E+00  1.50000000E+00  8.00000000E-01  8.00000000E-01
  1.50000000E+00  1.50000000E+00  8.00000000E-01  8.00000000E-01  1.50000000E+00
  1.50000000E+00  8.00000000E-01  8.00000000E-01  1.50000000E+00  1.50000000E+00
  8.00000000E-01  8.00000000E-01  1.50000000E+00  1.50000000E+00  8.00000000E-01
  8.00000000E-01  1.50000000E+00  1.50000000E+00  8.00000000E-01  8.00000000E-01
  1.50000000E+00  1.50000000E+00  8.00000000E-01  8.00000000E-01  1.50000000E+00
  1.50000000E+00  8.00000000E-01  8.00000000E-01  1.50000000E+00  1.50000000E+00
  8.00000000E-01  8.00000000E-01  1.50000000E+00  1.50000000E+00  8.00000000E-01
  8.00000000E-01  1.50000000E+00  1.50000000E+00  8.00000000E-01  8.00000000E-01
  1.50000000E+00  1.50000000E+00  8.00000000E-01  8.00000000E-01  1.50000000E+00
  1.50000000E+00  8.00000000E-01  8.00000000E-01  1.50000000E+00  1.50000000E+00
  8.00000000E-01  8.00000000E-01  1.50000000E+00  1.50000000E+00  8.00000000E-01
  8.00000000E-01  1.50000000E+00  1.50000000E+00  8.00000000E-01  8.00000000E-01
  1.50000000E+00  1.50000000E+00  8.00000000E-01  8.00000000E-01  1.50000000E+00
  1.50000000E+00  8.00000000E-01  8.00000000E-01  1.50000000E+00  1.50000000E+00
  8.00000000E-01  8.00000000E-01  1.50000000E+00  1.50000000E+00  8.00000000E-01
  8.00000000E-01  1.50000000E+00  1.50000000E+00  8.00000000E-01  8.00000000E-01
  1.50000000E+00  1.50000000E+00  8.00000000E-01  8.00000000E-01  1.50000000E+00
  1.50000000E+00  8.00000000E-01  8.00000000E-01  1.50000000E+00  1.50000000E+00
  8.00000000E-01  8.00000000E-01  1.50000000E+00  1.50000000E+00  8.00000000E-01
  8.00000000E-01  1.50000000E+00  1.50000000E+00  8.00000000E-01  8.00000000E-01
  1.50000000E+00  1.50000000E+00  8.00000000E-01  8.00000000E-01  1.50000000E+00
  1.50000000E+00  8.00000000E-01  8.00000000E-01  1.50000000E+00  1.50000000E+00
  8.00000000E-01  8.00000000E-01  1.50000000E+00  1.50000000E+00  8.00000000E-01
  8.00000000E-01  1.50000000E+00  1.50000000E+00  8.00000000E-01  8.00000000E-01
  1.50000000E+00  1.50000000E+00  8.00000000E-01  8.00000000E-01  1.50000000E+00
  1.50000000E+00  8.00000000E-01  8.00000000E-01  1.50000000E+00  1.50000000E+00
  8.00000000E-01  8.00000000E-01  1.50000000E+00  1.50000000E+00  8.00000000E-01
  8.00000000E-01  1.50000000E+00  1.50000000E+00  8.00000000E-01  8.00000000E-01
  1.50000000E+00  1.50000000E+00  8.00000000E-01  8.00000000E-01  1.50000000E+00
  1.50000000E+00  8.00000000E-01  8.00000000E-01  1.50000000E+00  1.50000000E+00
  8.00000000E-01  8.00000000E-01  1.50000000E+00  1.50000000E+00  8.00000000E-01
  8.00000000E-01  1.50000000E+00  1.50000000E+00  8.00000000E-01  8.00000000E-01
  1.50000000E+00  1.50000000E+00  8.00000000E-01  8.00000000E-01  1.50000000E+00
  1.50000000E+00  8.00000000E-01  8.00000000E-01  1.50000000E+00  1.50000000E+00
  8.00000000E-01  8.00000000E-01  1.50000000E+00  1.50000000E+00  8.00000000E-01
  8.00000000E-01  1.50000000E+00  1.50000000E+00  8.00000000E-01  8.00000000E-01
  1.50000000E+00  1.50000000E+00  8.00000000E-01  8.00000000E-01  1.50000000E+00
  1.50000000E+00  8.00000000E-01  8.00000000E-01  1.50000000E+00  1.50000000E+00
  8.00000000E-01  8.00000000E-01  1.50000000E+00  1.50000000E+00  8.00000000E-01
  8.00000000E-01  1.50000000E+00  1.50000000E+00  8.00000000E-01  8.00000000E-01
  1.50000000E+00  1.50000000E+00  8.00000000E-01  8.00000000E-01  1.50000000E+00
  1.50000000E+00  8.00000000E-01  8.00000000E-01  1.50000000E+00  1.50000000E+00
  8.00000000E-01  8.00000000E-01  1.50000000E+00  1.50000000E+00  8.00000000E-01
  8.00000000E-01  1.50000000E+00  1.50000000E+00  8.00000000E-01  8.00000000E-01
  1.50000000E+00  1.50000000E+00  8.00000000E-01  8.00000000E-01  1.50000000E+00
  1.50000000E+00  8.00000000E-01  8.00000000E-01  1.50000000E+00  1.50000000E+00
  8.00000000E-01  8.00000000E-01  1.50000000E+00  1.50000000E+00  8.00000000E-01
  8.00000000E-01  1.50000000E+00  1.50000000E+00  8.00000000E-01  8.00000000E-01
  1.50000000E+00  1.50000000E+00  8.00000000E-01  8.00000000E-01  1.50000000E+00
  1.50000000E+00  8.00000000E-01  8.00000000E-01  1.50000000E+00  1.50000000E+00
  8.00000000E-01  8.00000000E-01  1.50000000E+00  1.50000000E+00  8.00000000E-01
  8.00000000E-01  1.50000000E+00  1.50000000E+00  8.00000000E-01  8.00000000E-01
  1.50000000E+00  1.50000000E+00  8.00000000E-01  8.00000000E-01  1.50000000E+00
  1.50000000E+00  8.00000000E-01  8.00000000E-01  1.50000000E+00  1.50000000E+00
  8.00000000E-01  8.00000000E-01  1.50000000E+00  1.50000000E+00  8.00000000E-01
  8.00000000E-01  1.50000000E+00  1.50000000E+00  8.00000000E-01  8.00000000E-01
  1.50000000E+00  1.50000000E+00  8.00000000E-01  8.00000000E-01  1.50000000E+00
  1.50000000E+00  8.00000000E-01  8.00000000E-01  1.50000000E+00  1.50000000E+00
  8.00000000E-01  8.00000000E-01  1.50000000E+00  1.50000000E+00  8.00000000E-01
  8.00000000E-01  1.50000000E+00  1.50000000E+00  8.00000000E-01  8.00000000E-01
  1.50000000E+00  1.50000000E+00  8.00000000E-01  8.00000000E-01  1.50000000E+00
  1.50000000E+00  8.00000000E-01  8.00000000E-01  1.50000000E+00  1.50000000E+00
  8.00000000E-01  8.00000000E-01  1.50000000E+00  1.50000000E+00  8.00000000E-01
  8.00000000E-01  1.50000000E+00  1.50000000E+00  8.00000000E-01  8.00000000E-01
  1.50000000E+00  1.50000000E+00  8.00000000E-01  8.00000000E-01  1.50000000E+00
  1.50000000E+00  8.00000000E-01  8.00000000E-01  1.50000000E+00  1.50000000E+00
  8.00000000E-01  8.00000000E-01  1.50000000E+00  1.50000000E+00  8.00000000E-01
  8.00000000E-01  1.50000000E+00  1.50000000E+00  8.00000000E-01  8.00000000E-01
  1.50000000E+00  1.50000000E+00  8.00000000E-01  8.00000000E-01  1.50000000E+00
  1.50000000E+00  8.00000000E-01  8.00000000E-01  1.50000000E+00  1.50000000E+00
  8.00000000E-01  8.00000000E-01  1.50000000E+00  1.50000000E+00  8.00000000E-01
  8.00000000E-01  1.50000000E+00  1.50000000E+00  8.00000000E-01  8.00000000E-01
  1.50000000E+00  1.50000000E+00  8.00000000E-01  8.00000000E-01  1.50000000E+00
  1.50000000E+00  8.00000000E-01  8.00000000E-01  1.50000000E+00  1.50000000E+00
  8.00000000E-01  8.00000000E-01  1.50000000E+00  1.50000000E+00  8.00000000E-01
  8.00000000E-01  1.50000000E+00  1.50000000E+00  8.00000000E-01  8.00000000E-01
  1.50000000E+00  1.50000000E+00  8.00000000E-01  8.00000000E-01  1.50000000E+00
  1.50000000E+00  8.00000000E-01  8.00000000E-01  1.50000000E+00  1.50000000E+00
  8.00000000E-01  8.00000000E-01  1.50000000E+00  1.50000000E+00  8.00000000E-01
  8.00000000E-01  1.50000000E+00  1.50000000E+00  8.00000000E-01  8.00000000E-01
  1.50000000E+00  1.50000000E+00  8.00000000E-01  8.00000000E-01  1.50000000E+00
  1.50000000E+00  8.00000000E-01  8.00000000E-01  1.50000000E+00  1.50000000E+00
  8.00000000E-01  8.00000000E-01  1.50000000E+00  1.50000000E+00  8.00000000E-01
  8.00000000E-01  1.50000000E+00  1.50000000E+00  8.00000000E-01  8.00000000E-01
  1.50000000E+00  1.50000000E+00  8.00000000E-01  8.00000000E-01  1.50000000E+00
  1.50000000E+00  8.00000000E-01  8.00000000E-01  1.50000000E+00  1.50000000E+00
  8.00000000E-01  8.00000000E-01  1.50000000E+00  1.50000000E+00  8.00000000E-01
  8.00000000E-01  1.50000000E+00  1.50000000E+00  8.00000000E-01  8.00000000E-01
  1.50000000E+00  1.50000000E+00  8.00000000E-01  8.00000000E-01  1.50000000E+00
  1.50000000E+00  8.00000000E-01  8.00000000E-01  1.50000000E+00  1.50000000E+00
  8.00000000E-01  8.00000000E-01  1.50000000E+00  1.50000000E+00  8.00000000E-01
  8.00000000E-01  1.50000000E+00  1.50000000E+00  8.00000000E-01  8.00000000E-01
  1.50000000E+00  1.50000000E+00  8.00000000E-01  8.00000000E-01  1.50000000E+00
  1.50000000E+00  8.00000000E-01  8.00000000E-01  1.50000000E+00  1.50000000E+00
  8.00000000E-01  8.00000000E-01  1.50000000E+00  1.50000000E+00  8.00000000E-01
  8.00000000E-01  1.50000000E+00  1.50000000E+00  8.00000000E-01  8.00000000E-01
  1.50000000E+00  1.50000000E+00  8.00000000E-01  8.00000000E-01  1.50000000E+00
  1.50000000E+00  8.00000000E-01  8.00000000E-01  1.50000000E+00  1.50000000E+00
  8.00000000E-01  8.00000000E-01  1.50000000E+00  1.50000000E+00  8.00000000E-01
  8.00000000E-01  1.50000000E+00  1.50000000E+00  8.00000000E-01  8.00000000E-01
  1.50000000E+00  1.50000000E+00  8.00000000E-01  8.00000000E-01  1.50000000E+00
  1.50000000E+00  8.00000000E-01  8.00000000E-01  1.50000000E+00  1.50000000E+00
  8.00000000E-01  8.00000000E-01  1.50000000E+00  1.50000000E+00  8.00000000E-01
  8.00000000E-01  1.50000000E+00  1.50000000E+00  8.00000000E-01  8.00000000E-01
  1.50000000E+00  1.50000000E+00  8.00000000E-01  8.00000000E-01  1.50000000E+00
  1.50000000E+00  8.00000000E-01  8.00000000E-01  1.50000000E+00  1.50000000E+00
  8.00000000E-01  8.00000000E-01  1.50000000E+00  1.50000000E+00  8.00000000E-01
  8.00000000E-01  1.50000000E+00  1.50000000E+00  8.00000000E-01  8.00000000E-01
  1.50000000E+00  1.50000000E+00  8.00000000E-01  8.00000000E-01  1.50000000E+00
  1.50000000E+00  8.00000000E-01  8.00000000E-01  1.50000000E+00  1.50000000E+00
  8.00000000E-01  8.00000000E-01  1.50000000E+00  1.50000000E+00  8.00000000E-01
  8.00000000E-01  1.50000000E+00  1.50000000E+00  8.00000000E-01  8.00000000E-01
  1.50000000E+00  1.50000000E+00  8.00000000E-01  8.00000000E-01  1.50000000E+00
  1.50000000E+00  8.00000000E-01  8.00000000E-01  1.50000000E+00  1.50000000E+00
  8.00000000E-01  8.00000000E-01  1.50000000E+00  1.50000000E+00  8.00000000E-01
  8.00000000E-01  1.50000000E+00  1.50000000E+00  8.00000000E-01  8.00000000E-01
  1.50000000E+00  1.50000000E+00  8.00000000E-01  8.00000000E-01  1.50000000E+00
  1.50000000E+00  8.00000000E-01  8.00000000E-01  1.50000000E+00  1.50000000E+00
  8.00000000E-01  8.00000000E-01  1.50000000E+00  1.50000000E+00  8.00000000E-01
  8.00000000E-01  1.50000000E+00  1.50000000E+00  8.00000000E-01  8.00000000E-01
  1.50000000E+00  1.50000000E+00  8.00000000E-01  8.00000000E-01  1.50000000E+00
  1.50000000E+00  8.00000000E-01  8.00000000E-01  1.50000000E+00  1.50000000E+00
  8.00000000E-01  8.00000000E-01  1.50000000E+00  1.50000000E+00  8.00000000E-01
  8.00000000E-01  1.50000000E+00  1.50000000E+00  8.00000000E-01  8.00000000E-01
  1.50000000E+00  1.50000000E+00  8.00000000E-01  8.00000000E-01  1.50000000E+00
  1.50000000E+00  8.00000000E-01  8.00000000E-01  1.50000000E+00  1.50000000E+00
  8.00000000E-01  8.00000000E-01  1.50000000E+00  1.50000000E+00  8.00000000E-01
  8.00000000E-01  1.50000000E+00  1.50000000E+00  8.00000000E-01  8.00000000E-01
  1.50000000E+00  1.50000000E+00  8.00000000E-01  8.00000000E-01  1.50000000E+00
  1.50000000E+00  8.00000000E-01  8.00000000E-01  1.50000000E+00  1.50000000E+00
  8.00000000E-01  8.00000000E-01  1.50000000E+00  1.50000000E+00  8.00000000E-01
  8.00000000E-01  1.50000000E+00  1.50000000E+00  8.00000000E-01  8.00000000E-01
  1.50000000E+00  1.50000000E+00  8.00000000E-01  8.00000000E-01  1.50000000E+00
  1.50000000E+00  8.00000000E-01  8.00000000E-01  1.50000000E+00  1.50000000E+00
  8.00000000E-01  8.00000000E-01  1.50000000E+00  1.50000000E+00  8.00000000E-01
  8.00000000E-01  1.50000000E+00  1.50000000E+00  8.00000000E-01  8.00000000E-01
  1.50000000E+00  1.50000000E+00  8.00000000E-01  8.00000000E-01  1.50000000E+00
  1.50000000E+00  8.00000000E-01  8.00000000E-01  1.50000000E+00  1.50000000E+00
  8.00000000E-01  8.00000000E-01  1.50000000E+00  1.50000000E+00  8.00000000E-01
  8.00000000E-01  1.50000000E+00  1.50000000E+00  8.00000000E-01  8.00000000E-01
  1.50000000E+00  1.50000000E+00  8.00000000E-01  8.00000000E-01  1.50000000E+00
  1.50000000E+00  8.00000000E-01  8.00000000E-01  1.50000000E+00  1.50000000E+00
  8.00000000E-01  8.00000000E-01  1.50000000E+00  1.50000000E+00  8.00000000E-01
  8.00000000E-01  1.50000000E+00  1.50000000E+00  8.00000000E-01  8.00000000E-01
  1.50000000E+00  1.50000000E+00  8.00000000E-01  8.00000000E-01  1.50000000E+00
  1.50000000E+00  8.00000000E-01  8.00000000E-01  1.50000000E+00  1.50000000E+00
  8.00000000E-01  8.00000000E-01  1.50000000E+00  1.50000000E+00  8.00000000E-01
  8.00000000E-01  1.50000000E+00  1.50000000E+00  8.00000000E-01  8.00000000E-01
  1.50000000E+00  1.50000000E+00  8.00000000E-01  8.00000000E-01  1.50000000E+00
  1.50000000E+00  8.00000000E-01  8.00000000E-01  1.50000000E+00  1.50000000E+00
  8.00000000E-01  8.00000000E-01  1.50000000E+00  1.50000000E+00  8.00000000E-01
  8.00000000E-01  1.50000000E+00  1.50000000E+00  8.00000000E-01  8.00000000E-01
  1.50000000E+00  1.50000000E+00  8.00000000E-01  8.00000000E-01  1.50000000E+00
  1.50000000E+00  8.00000000E-01  8.00000000E-01  1.50000000E+00  1.50000000E+00
  8.00000000E-01  8.00000000E-01  1.50000000E+00  1.50000000E+00  8.00000000E-01
  8.00000000E-01  1.50000000E+00  1.50000000E+00  8.00000000E-01  8.00000000E-01
  1.50000000E+00  1.50000000E+00  8.00000000E-01  8.00000000E-01  1.50000000E+00
  1.50000000E+00  8.00000000E-01  8.00000000E-01  1.50000000E+00  1.50000000E+00
  8.00000000E-01  8.00000000E-01  1.50000000E+00  1.50000000E+00  8.00000000E-01
  8.00000000E-01  1.50000000E+00  1.50000000E+00  8.00000000E-01  8.00000000E-01
  1.50000000E+00  1.50000000E+00  8.00000000E-01  8.00000000E-01  1.50000000E+00
  1.50000000E+00  8.00000000E-01  8.00000000E-01  1.50000000E+00  1.50000000E+00
  8.00000000E-01  8.00000000E-01  1.50000000E+00  1.50000000E+00  8.00000000E-01
  8.00000000E-01  1.50000000E+00  1.50000000E+00  8.00000000E-01  8.00000000E-01
  1.50000000E+00  1.50000000E+00  8.00000000E-01  8.00000000E-01  1.50000000E+00
  1.50000000E+00  8.00000000E-01  8.00000000E-01  1.50000000E+00  1.50000000E+00
  8.00000000E-01  8.00000000E-01  1.50000000E+00  1.50000000E+00  8.00000000E-01
  8.00000000E-01  1.50000000E+00  1.50000000E+00  8.00000000E-01  8.00000000E-01
  1.50000000E+00  1.50000000E+00  8.00000000E-01  8.00000000E-01  1.50000000E+00
  1.50000000E+00  8.00000000E-01  8.00000000E-01  1.50000000E+00  1.50000000E+00
  8.00000000E-01  8.00000000E-01  1.50000000E+00  1.50000000E+00  8.00000000E-01
  8.00000000E-01  1.50000000E+00  1.50000000E+00  8.00000000E-01  8.00000000E-01
  1.50000000E+00  1.50000000E+00  8.00000000E-01  8.00000000E-01  1.50000000E+00
  1.50000000E+00  8.00000000E-01  8.00000000E-01  1.50000000E+00  1.50000000E+00
  8.00000000E-01  8.00000000E-01  1.50000000E+00  1.50000000E+00  8.00000000E-01
  8.00000000E-01  1.50000000E+00  1.50000000E+00  8.00000000E-01  8.00000000E-01
  1.50000000E+00  1.50000000E+00  8.00000000E-01  8.00000000E-01  1.50000000E+00
  1.50000000E+00  8.00000000E-01  8.00000000E-01  1.50000000E+00  1.50000000E+00
  8.00000000E-01  8.00000000E-01  1.50000000E+00  1.50000000E+00  8.00000000E-01
  8.00000000E-01  1.50000000E+00  1.50000000E+00  8.00000000E-01  8.00000000E-01
  1.50000000E+00  1.50000000E+00  8.00000000E-01  8.00000000E-01  1.50000000E+00
  1.50000000E+00  8.00000000E-01  8.00000000E-01  1.50000000E+00  1.50000000E+00
  8.00000000E-01  8.00000000E-01  1.50000000E+00  1.50000000E+00  8.00000000E-01
  8.00000000E-01  1.50000000E+00  1.50000000E+00  8.00000000E-01  8.00000000E-01
  1.50000000E+00  1.50000000E+00  8.00000000E-01  8.00000000E-01  1.50000000E+00
  1.50000000E+00  8.00000000E-01  8.00000000E-01  1.50000000E+00  1.50000000E+00
  8.00000000E-01  8.00000000E-01  1.50000000E+00  1.50000000E+00  8.00000000E-01
  8.00000000E-01  1.50000000E+00  1.50000000E+00  8.00000000E-01  8.00000000E-01
  1.50000000E+00  1.50000000E+00  8.00000000E-01  8.00000000E-01  1.50000000E+00
  1.50000000E+00  8.00000000E-01  8.00000000E-01  1.50000000E+00  1.50000000E+00
  8.00000000E-01  8.00000000E-01  1.50000000E+00  1.50000000E+00  8.00000000E-01
  8.00000000E-01  1.50000000E+00  1.50000000E+00  8.00000000E-01  8.00000000E-01
  1.50000000E+00  1.50000000E+00  8.00000000E-01  8.00000000E-01  1.50000000E+00
  1.50000000E+00  8.00000000E-01  8.00000000E-01  1.50000000E+00  1.50000000E+00
  8.00000000E-01  8.00000000E-01  1.50000000E+00  1.50000000E+00  8.00000000E-01
  8.00000000E-01  1.50000000E+00  1.50000000E+00  8.00000000E-01  8.00000000E-01
  1.50000000E+00  1.50000000E+00  8.00000000E-01  8.00000000E-01  1.50000000E+00
  1.50000000E+00  8.00000000E-01  8.00000000E-01  1.50000000E+00  1.50000000E+00
  8.00000000E-01  8.00000000E-01  1.50000000E+00  1.50000000E+00  8.00000000E-01
  8.00000000E-01  1.50000000E+00  1.50000000E+00  8.00000000E-01  8.00000000E-01
  1.50000000E+00  1.50000000E+00  8.00000000E-01  8.00000000E-01  1.50000000E+00
  1.50000000E+00  8.00000000E-01  8.00000000E-01  1.50000000E+00  1.50000000E+00
  8.00000000E-01  8.00000000E-01  1.50000000E+00  1.50000000E+00  8.00000000E-01
  8.00000000E-01  1.50000000E+00  1.50000000E+00  8.00000000E-01  8.00000000E-01
  1.50000000E+00  1.50000000E+00  8.00000000E-01  8.00000000E-01  1.50000000E+00
  1.50000000E+00  8.00000000E-01  8.00000000E-01  1.50000000E+00  1.50000000E+00
  8.00000000E-01  8.00000000E-01  1.50000000E+00  1.50000000E+00  8.00000000E-01
  8.00000000E-01  1.50000000E+00  1.50000000E+00  8.00000000E-01  8.00000000E-01
  1.50000000E+00  1.50000000E+00  8.00000000E-01  8.00000000E-01  1.50000000E+00
  1.50000000E+00  8.00000000E-01  8.00000000E-01  1.50000000E+00  1.50000000E+00
  8.00000000E-01  8.00000000E-01  1.50000000E+00  1.50000000E+00  8.00000000E-01
  8.00000000E-01  1.50000000E+00  1.50000000E+00  8.00000000E-01  8.00000000E-01
  1.50000000E+00  1.50000000E+00  8.00000000E-01  8.00000000E-01  1.50000000E+00
  1.50000000E+00  8.00000000E-01  8.00000000E-01  1.50000000E+00  1.50000000E+00
  8.00000000E-01  8.00000000E-01  1.50000000E+00  1.50000000E+00  8.00000000E-01
  8.00000000E-01  1.50000000E+00  1.50000000E+00  8.00000000E-01  8.00000000E-01
  1.50000000E+00  1.50000000E+00  8.00000000E-01  8.00000000E-01  1.50000000E+00
  1.50000000E+00  8.00000000E-01  8.00000000E-01  1.50000000E+00  1.50000000E+00
  8.00000000E-01  8.00000000E-01  1.50000000E+00  1.50000000E+00  8.00000000E-01
  8.00000000E-01  1.50000000E+00  1.50000000E+00  8.00000000E-01  8.00000000E-01
  1.50000000E+00  1.50000000E+00  8.00000000E-01  8.00000000E-01  1.50000000E+00
  1.50000000E+00  8.00000000E-01  8.00000000E-01  1.50000000E+00  1.50000000E+00
  8.00000000E-01  8.00000000E-01  1.50000000E+00  1.50000000E+00  8.00000000E-01
  8.00000000E-01  1.50000000E+00  1.50000000E+00  8.00000000E-01  8.00000000E-01
  1.50000000E+00  1.50000000E+00  8.00000000E-01  8.00000000E-01  1.50000000E+00
  1.50000000E+00  8.00000000E-01  8.00000000E-01  1.50000000E+00  1.50000000E+00
  8.00000000E-01  8.00000000E-01  1.50000000E+00  1.50000000E+00  8.00000000E-01
  8.00000000E-01  1.50000000E+00  1.50000000E+00  8.00000000E-01  8.00000000E-01
  1.50000000E+00  1.50000000E+00  8.00000000E-01  8.00000000E-01  1.50000000E+00
  1.50000000E+00  8.00000000E-01  8.00000000E-01  1.50000000E+00  1.50000000E+00
  8.00000000E-01  8.00000000E-01  1.50000000E+00  1.50000000E+00  8.00000000E-01
  8.00000000E-01  1.50000000E+00  1.50000000E+00  8.00000000E-01  8.00000000E-01
  1.50000000E+00  1.50000000E+00  8.00000000E-01  8.00000000E-01  1.50000000E+00
  1.50000000E+00  8.00000000E-01  8.00000000E-01  1.50000000E+00  1.50000000E+00
  8.00000000E-01  8.00000000E-01  1.50000000E+00  1.50000000E+00  8.00000000E-01
  8.00000000E-01  1.50000000E+00  1.50000000E+00  8.00000000E-01  8.00000000E-01
  1.50000000E+00  1.50000000E+00  8.00000000E-01  8.00000000E-01  1.50000000E+00
  1.50000000E+00  8.00000000E-01  8.00000000E-01  1.50000000E+00  1.50000000E+00
  8.00000000E-01  8.00000000E-01  1.50000000E+00  1.50000000E+00  8.00000000E-01
  8.00000000E-01  1.50000000E+00  1.50000000E+00  8.00000000E-01  8.00000000E-01
  1.50000000E+00  1.50000000E+00  8.00000000E-01  8.00000000E-01  1.50000000E+00
  1.50000000E+00  8.00000000E-01  8.00000000E-01  1.50000000E+00  1.50000000E+00
  8.00000000E-01  8.00000000E-01  1.50000000E+00  1.50000000E+00  8.00000000E-01
  8.00000000E-01  1.50000000E+00  1.50000000E+00  8.00000000E-01  8.00000000E-01
  1.50000000E+00  1.50000000E+00  8.00000000E-01  8.00000000E-01  1.50000000E+00
  1.50000000E+00  8.00000000E-01  8.00000000E-01  1.50000000E+00  1.50000000E+00
  8.00000000E-01  8.00000000E-01  1.50000000E+00  1.50000000E+00  8.00000000E-01
  8.00000000E-01  1.50000000E+00  1.50000000E+00  8.00000000E-01  8.00000000E-01
  1.50000000E+00  1.50000000E+00  8.00000000E-01  8.00000000E-01  1.50000000E+00
  1.50000000E+00  8.00000000E-01  8.00000000E-01  1.50000000E+00  1.50000000E+00
  8.00000000E-01  8.00000000E-01  1.50000000E+00  1.50000000E+00  8.00000000E-01
  8.00000000E-01  1.50000000E+00  1.50000000E+00  8.00000000E-01  8.00000000E-01
  1.50000000E+00  1.50000000E+00  8.00000000E-01  8.00000000E-01  1.50000000E+00
  1.50000000E+00  8.00000000E-01  8.00000000E-01  1.50000000E+00  1.50000000E+00
  8.00000000E-01  8.00000000E-01  1.50000000E+00  1.50000000E+00  8.00000000E-01
  8.00000000E-01  1.50000000E+00  1.50000000E+00  8.00000000E-01  8.00000000E-01
  1.50000000E+00  1.50000000E+00  8.00000000E-01  8.00000000E-01  1.50000000E+00
  1.50000000E+00  8.00000000E-01  8.00000000E-01  1.50000000E+00  1.50000000E+00
  8.00000000E-01  8.00000000E-01  1.50000000E+00  1.50000000E+00  8.00000000E-01
  8.00000000E-01  1.50000000E+00  1.50000000E+00  8.00000000E-01  8.00000000E-01
  1.50000000E+00  1.50000000E+00  8.00000000E-01  8.00000000E-01  1.50000000E+00
  1.50000000E+00  8.00000000E-01  8.00000000E-01  1.50000000E+00  1.50000000E+00
  8.00000000E-01  8.00000000E-01  1.50000000E+00  1.50000000E+00  8.00000000E-01
  8.00000000E-01  1.50000000E+00  1.50000000E+00  8.00000000E-01  8.00000000E-01
  1.50000000E+00  1.50000000E+00  8.00000000E-01  8.00000000E-01  1.50000000E+00
  1.50000000E+00  8.00000000E-01  8.00000000E-01  1.50000000E+00  1.50000000E+00
  8.00000000E-01  8.00000000E-01  1.50000000E+00  1.50000000E+00  8.00000000E-01
  8.00000000E-01  1.50000000E+00  1.50000000E+00  8.00000000E-01  8.00000000E-01
  1.50000000E+00  1.50000000E+00  8.00000000E-01  8.00000000E-01  1.50000000E+00
  1.50000000E+00  8.00000000E-01  8.00000000E-01  1.50000000E+00  1.50000000E+00
  8.00000000E-01  8.00000000E-01  1.50000000E+00  1.50000000E+00  8.00000000E-01
  8.00000000E-01  1.50000000E+00  1.50000000E+00  8.00000000E-01  8.00000000E-01
  1.50000000E+00  1.50000000E+00  8.00000000E-01  8.00000000E-01  1.50000000E+00
  1.50000000E+00  8.00000000E-01  8.00000000E-01  1.50000000E+00  1.50000000E+00
  8.00000000E-01  8.00000000E-01  1.50000000E+00  1.50000000E+00  8.00000000E-01
  8.00000000E-01  1.50000000E+00  1.50000000E+00  8.00000000E-01  8.00000000E-01
  1.50000000E+00  1.50000000E+00  8.00000000E-01  8.00000000E-01  1.50000000E+00
  1.50000000E+00  8.00000000E-01  8.00000000E-01  1.50000000E+00  1.50000000E+00
  8.00000000E-01  8.00000000E-01  1.50000000E+00  1.50000000E+00  8.00000000E-01
  8.00000000E-01  1.50000000E+00  1.50000000E+00  8.00000000E-01  8.00000000E-01
  1.50000000E+00  1.50000000E+00  8.00000000E-01  8.00000000E-01  1.50000000E+00
  1.50000000E+00  8.00000000E-01  8.00000000E-01  1.50000000E+00  1.50000000E+00
  8.00000000E-01  8.00000000E-01  1.50000000E+00  1.50000000E+00  8.00000000E-01
  8.00000000E-01  1.50000000E+00  1.50000000E+00  8.00000000E-01  8.00000000E-01
  1.50000000E+00  1.50000000E+00  8.00000000E-01  8.00000000E-01  1.50000000E+00
  1.50000000E+00  8.00000000E-01  8.00000000E-01  1.50000000E+00  1.50000000E+00
  8.00000000E-01  8.00000000E-01  1.50000000E+00  1.50000000E+00  8.00000000E-01
  8.00000000E-01  1.50000000E+00  1.50000000E+00  8.00000000E-01  8.00000000E-01
  1.50000000E+00  1.50000000E+00  8.00000000E-01  8.00000000E-01  1.50000000E+00
  1.50000000E+00  8.00000000E-01  8.00000000E-01  1.50000000E+00  1.50000000E+00
  8.00000000E-01  8.00000000E-01  1.50000000E+00  1.50000000E+00  8.00000000E-01
  8.00000000E-01  1.50000000E+00  1.50000000E+00  8.00000000E-01  8.00000000E-01
  1.50000000E+00  1.50000000E+00  8.00000000E-01  8.00000000E-01  1.50000000E+00
  1.50000000E+00  8.00000000E-01  8.00000000E-01  1.50000000E+00  1.50000000E+00
  8.00000000E-01  8.00000000E-01  1.50000000E+00  1.50000000E+00  8.00000000E-01
  8.00000000E-01  1.50000000E+00  1.50000000E+00  8.00000000E-01  8.00000000E-01
  1.50000000E+00  1.50000000E+00  8.00000000E-01  8.00000000E-01  1.50000000E+00
  1.50000000E+00  8.00000000E-01  8.00000000E-01  1.50000000E+00  1.50000000E+00
  8.00000000E-01  8.00000000E-01  1.50000000E+00  1.50000000E+00  8.00000000E-01
  8.00000000E-01  1.50000000E+00  1.50000000E+00  8.00000000E-01  8.00000000E-01
  1.50000000E+00  1.50000000E+00  8.00000000E-01  8.00000000E-01  1.50000000E+00
  1.50000000E+00  8.00000000E-01  8.00000000E-01  1.50000000E+00  1.50000000E+00
  8.00000000E-01  8.00000000E-01  1.50000000E+00  1.50000000E+00  8.00000000E-01
  8.00000000E-01  1.50000000E+00  1.50000000E+00  8.00000000E-01  8.00000000E-01
  1.50000000E+00  1.50000000E+00  8.00000000E-01  8.00000000E-01  1.50000000E+00
  1.50000000E+00  8.00000000E-01  8.00000000E-01  1.50000000E+00  1.50000000E+00
  8.00000000E-01  8.00000000E-01  1.50000000E+00  1.50000000E+00  8.00000000E-01
  8.00000000E-01  1.50000000E+00  1.50000000E+00  8.00000000E-01  8.00000000E-01
  1.50000000E+00  1.50000000E+00  8.00000000E-01  8.00000000E-01  1.50000000E+00
  1.50000000E+00  8.00000000E-01  8.00000000E-01  1.50000000E+00  1.50000000E+00
  8.00000000E-01  8.00000000E-01  1.50000000E+00  1.50000000E+00  8.00000000E-01
  8.00000000E-01  1.50000000E+00  1.50000000E+00  8.00000000E-01  8.00000000E-01
  1.50000000E+00  1.50000000E+00  8.00000000E-01  8.00000000E-01  1.50000000E+00
  1.50000000E+00  8.00000000E-01  8.00000000E-01  1.50000000E+00  1.50000000E+00
  8.00000000E-01  8.00000000E-01  1.50000000E+00  1.50000000E+00  8.00000000E-01
  8.00000000E-01  1.50000000E+00  1.50000000E+00  8.00000000E-01  8.00000000E-01
  1.50000000E+00  1.50000000E+00  8.00000000E-01  8.00000000E-01  1.50000000E+00
  1.50000000E+00  8.00000000E-01  8.00000000E-01  1.50000000E+00  1.50000000E+00
  8.00000000E-01  8.00000000E-01  1.50000000E+00  1.50000000E+00  8.00000000E-01
  8.00000000E-01  1.50000000E+00  1.50000000E+00  8.00000000E-01  8.00000000E-01
  1.50000000E+00  1.50000000E+00  8.00000000E-01  8.00000000E-01  1.50000000E+00
  1.50000000E+00  8.00000000E-01  8.00000000E-01  1.50000000E+00  1.50000000E+00
  8.00000000E-01  8.00000000E-01  1.50000000E+00  1.50000000E+00  8.00000000E-01
  8.00000000E-01  1.50000000E+00  1.50000000E+00  8.00000000E-01  8.00000000E-01
  1.50000000E+00  1.50000000E+00  8.00000000E-01  8.00000000E-01  1.50000000E+00
  1.50000000E+00  8.00000000E-01  8.00000000E-01  1.50000000E+00  1.50000000E+00
  8.00000000E-01  8.00000000E-01  1.50000000E+00  1.50000000E+00  8.00000000E-01
  8.00000000E-01  1.50000000E+00  1.50000000E+00  8.00000000E-01  8.00000000E-01
  1.50000000E+00  1.50000000E+00  8.00000000E-01  8.00000000E-01  1.50000000E+00
  1.50000000E+00  8.00000000E-01  8.00000000E-01  1.50000000E+00  1.50000000E+00
  8.00000000E-01  8.00000000E-01  1.50000000E+00  1.50000000E+00  8.00000000E-01
  8.00000000E-01  1.50000000E+00  1.50000000E+00  8.00000000E-01  8.00000000E-01
  1.50000000E+00  1.50000000E+00  8.00000000E-01  8.00000000E-01  1.50000000E+00
  1.50000000E+00  8.00000000E-01  8.00000000E-01  1.50000000E+00  1.50000000E+00
  8.00000000E-01  8.00000000E-01  1.50000000E+00  1.50000000E+00  8.00000000E-01
  8.00000000E-01  1.50000000E+00  1.50000000E+00  8.00000000E-01  8.00000000E-01
  1.50000000E+00  1.50000000E+00  8.00000000E-01  8.00000000E-01  1.50000000E+00
  1.50000000E+00  8.00000000E-01  8.00000000E-01  1.50000000E+00  1.50000000E+00
  8.00000000E-01  8.00000000E-01  1.50000000E+00  1.50000000E+00  8.00000000E-01
  8.00000000E-01  1.50000000E+00  1.50000000E+00  8.00000000E-01  8.00000000E-01
  1.50000000E+00  1.50000000E+00  8.00000000E-01  8.00000000E-01  1.50000000E+00
  1.50000000E+00  8.00000000E-01  8.00000000E-01  1.50000000E+00  1.50000000E+00
  8.00000000E-01  8.00000000E-01  1.50000000E+00  1.50000000E+00  8.00000000E-01
  8.00000000E-01  1.50000000E+00  1.50000000E+00  8.00000000E-01  8.00000000E-01
  1.50000000E+00  1.50000000E+00  8.00000000E-01  8.00000000E-01  1.50000000E+00
  1.50000000E+00  8.00000000E-01  8.00000000E-01  1.50000000E+00  1.50000000E+00
  8.00000000E-01  8.00000000E-01  1.50000000E+00  1.50000000E+00  8.00000000E-01
  8.00000000E-01  1.50000000E+00  1.50000000E+00  8.00000000E-01  8.00000000E-01
  1.50000000E+00  1.50000000E+00  8.00000000E-01  8.00000000E-01  1.50000000E+00
  1.50000000E+00  8.00000000E-01  8.00000000E-01  1.50000000E+00  1.50000000E+00
  8.00000000E-01  8.00000000E-01  1.50000000E+00  1.50000000E+00  8.00000000E-01
  8.00000000E-01  1.50000000E+00  1.50000000E+00  8.00000000E-01  8.00000000E-01
  1.50000000E+00  1.50000000E+00  8.00000000E-01  8.00000000E-01  1.50000000E+00
  1.50000000E+00  8.00000000E-01  8.00000000E-01  1.50000000E+00  1.50000000E+00
  8.00000000E-01  8.00000000E-01  1.50000000E+00  1.50000000E+00  8.00000000E-01
  8.00000000E-01  1.50000000E+00  1.50000000E+00  8.00000000E-01  8.00000000E-01
  1.50000000E+00  1.50000000E+00  8.00000000E-01  8.00000000E-01  1.50000000E+00
  1.50000000E+00  8.00000000E-01  8.00000000E-01  1.50000000E+00  1.50000000E+00
  8.00000000E-01  8.00000000E-01  1.50000000E+00  1.50000000E+00  8.00000000E-01
  8.00000000E-01  1.50000000E+00  1.50000000E+00  8.00000000E-01  8.00000000E-01
  1.50000000E+00  1.50000000E+00  8.00000000E-01  8.00000000E-01  1.50000000E+00
  1.50000000E+00  8.00000000E-01  8.00000000E-01  1.50000000E+00  1.50000000E+00
  8.00000000E-01  8.00000000E-01  1.50000000E+00  1.50000000E+00  8.00000000E-01
  8.00000000E-01  1.50000000E+00  1.50000000E+00  8.00000000E-01  8.00000000E-01
  1.50000000E+00  1.50000000E+00  8.00000000E-01  8.00000000E-01  1.50000000E+00
  1.50000000E+00  8.00000000E-01  8.00000000E-01  1.50000000E+00  1.50000000E+00
  8.00000000E-01  8.00000000E-01  1.50000000E+00  1.50000000E+00  8.00000000E-01
  8.00000000E-01  1.50000000E+00  1.50000000E+00  8.00000000E-01  8.00000000E-01
  1.50000000E+00  1.50000000E+00  8.00000000E-01  8.00000000E-01  1.50000000E+00
  1.50000000E+00  8.00000000E-01  8.00000000E-01  1.50000000E+00  1.50000000E+00
  8.00000000E-01  8.00000000E-01  1.50000000E+00  1.50000000E+00  8.00000000E-01
  8.00000000E-01  1.50000000E+00  1.50000000E+00  8.00000000E-01  8.00000000E-01
  1.50000000E+00  1.50000000E+00  8.00000000E-01  8.00000000E-01  1.50000000E+00
  1.50000000E+00  8.00000000E-01  8.00000000E-01  1.50000000E+00  1.50000000E+00
  8.00000000E-01  8.00000000E-01  1.50000000E+00  1.50000000E+00  8.00000000E-01
  8.00000000E-01  1.50000000E+00  1.50000000E+00  8.00000000E-01  8.00000000E-01
  1.50000000E+00  1.50000000E+00  8.00000000E-01  8.00000000E-01  1.50000000E+00
  1.50000000E+00  8.00000000E-01  8.00000000E-01  1.50000000E+00  1.50000000E+00
  8.00000000E-01  8.00000000E-01  1.50000000E+00  1.50000000E+00  8.00000000E-01
  8.00000000E-01  1.50000000E+00  1.50000000E+00  8.00000000E-01  8.00000000E-01
  1.50000000E+00  1.50000000E+00  8.00000000E-01  8.00000000E-01  1.50000000E+00
  1.50000000E+00  8.00000000E-01  8.00000000E-01  1.50000000E+00  1.50000000E+00
  8.00000000E-01  8.00000000E-01  1.50000000E+00  1.50000000E+00  8.00000000E-01
  8.00000000E-01  1.50000000E+00  1.50000000E+00  8.00000000E-01  8.00000000E-01
  1.50000000E+00  1.50000000E+00  8.00000000E-01  8.00000000E-01  1.50000000E+00
  1.50000000E+00  8.00000000E-01  8.00000000E-01  1.50000000E+00  1.50000000E+00
  8.00000000E-01  8.00000000E-01  1.50000000E+00  1.50000000E+00  8.00000000E-01
  8.00000000E-01  1.50000000E+00  1.50000000E+00  8.00000000E-01  8.00000000E-01
  1.50000000E+00  1.50000000E+00  8.00000000E-01  8.00000000E-01  1.50000000E+00
  1.50000000E+00  8.00000000E-01  8.00000000E-01  1.50000000E+00  1.50000000E+00
  8.00000000E-01  8.00000000E-01  1.50000000E+00  1.50000000E+00  8.00000000E-01
  8.00000000E-01  1.50000000E+00  1.50000000E+00  8.00000000E-01  8.00000000E-01
  1.50000000E+00  1.50000000E+00  8.00000000E-01  8.00000000E-01  1.50000000E+00
  1.50000000E+00  8.00000000E-01  8.00000000E-01  1.50000000E+00  1.50000000E+00
  8.00000000E-01  8.00000000E-01  1.50000000E+00  1.50000000E+00  8.00000000E-01
  8.00000000E-01  1.50000000E+00  1.50000000E+00  8.00000000E-01  8.00000000E-01
  1.50000000E+00  1.50000000E+00  8.00000000E-01  8.00000000E-01  1.50000000E+00
  1.50000000E+00  8.00000000E-01  8.00000000E-01  1.50000000E+00  1.50000000E+00
  8.00000000E-01  8.00000000E-01  1.50000000E+00  1.50000000E+00  8.00000000E-01
  8.00000000E-01  1.50000000E+00  1.50000000E+00  8.00000000E-01  8.00000000E-01
  1.50000000E+00  1.50000000E+00  8.00000000E-01  8.00000000E-01  1.50000000E+00
  1.50000000E+00  8.00000000E-01  8.00000000E-01  1.50000000E+00  1.50000000E+00
  8.00000000E-01  8.00000000E-01  1.50000000E+00  1.50000000E+00  8.00000000E-01
  8.00000000E-01  1.50000000E+00  1.50000000E+00  8.00000000E-01  8.00000000E-01
  1.50000000E+00  1.50000000E+00  8.00000000E-01  8.00000000E-01  1.50000000E+00
  1.50000000E+00  8.00000000E-01  8.00000000E-01  1.50000000E+00  1.50000000E+00
  8.00000000E-01  8.00000000E-01  1.50000000E+00  1.50000000E+00  8.00000000E-01
  8.00000000E-01  1.50000000E+00  1.50000000E+00  8.00000000E-01  8.00000000E-01
  1.50000000E+00  1.50000000E+00  8.00000000E-01  8.00000000E-01  1.50000000E+00
  1.50000000E+00  8.00000000E-01  8.00000000E-01  1.50000000E+00  1.50000000E+00
  8.00000000E-01  8.00000000E-01  1.50000000E+00  1.50000000E+00  8.00000000E-01
  8.00000000E-01  1.50000000E+00  1.50000000E+00  8.00000000E-01  8.00000000E-01
  1.50000000E+00  1.50000000E+00  8.00000000E-01  8.00000000E-01  1.50000000E+00
  1.50000000E+00  8.00000000E-01  8.00000000E-01  1.50000000E+00  1.50000000E+00
  8.00000000E-01  8.00000000E-01  1.50000000E+00  1.50000000E+00  8.00000000E-01
  8.00000000E-01  1.50000000E+00  1.50000000E+00  8.00000000E-01  8.00000000E-01
  1.50000000E+00  1.50000000E+00  8.00000000E-01  8.00000000E-01  1.50000000E+00
  1.50000000E+00  8.00000000E-01  8.00000000E-01  1.50000000E+00  1.50000000E+00
  8.00000000E-01  8.00000000E-01  1.50000000E+00  1.50000000E+00  8.00000000E-01
  8.00000000E-01  1.50000000E+00  1.50000000E+00  8.00000000E-01  8.00000000E-01
  1.50000000E+00  1.50000000E+00  8.00000000E-01  8.00000000E-01  1.50000000E+00
  1.50000000E+00  8.00000000E-01  8.00000000E-01  1.50000000E+00  1.50000000E+00
  8.00000000E-01  8.00000000E-01  1.50000000E+00  1.50000000E+00  8.00000000E-01
  8.00000000E-01  1.50000000E+00  1.50000000E+00  8.00000000E-01  8.00000000E-01
  1.50000000E+00  1.50000000E+00  8.00000000E-01  8.00000000E-01  1.50000000E+00
  1.50000000E+00  8.00000000E-01  8.00000000E-01  1.50000000E+00  1.50000000E+00
  8.00000000E-01  8.00000000E-01  1.50000000E+00  1.50000000E+00  8.00000000E-01
  8.00000000E-01  1.50000000E+00  1.50000000E+00  8.00000000E-01  8.00000000E-01
  1.50000000E+00  1.50000000E+00  8.00000000E-01  8.00000000E-01  1.50000000E+00
  1.50000000E+00  8.00000000E-01  8.00000000E-01  1.50000000E+00  1.50000000E+00
  8.00000000E-01  8.00000000E-01  1.50000000E+00  1.50000000E+00  8.00000000E-01
  8.00000000E-01  1.50000000E+00  1.50000000E+00  8.00000000E-01  8.00000000E-01
  1.50000000E+00  1.50000000E+00  8.00000000E-01  8.00000000E-01  1.50000000E+00
  1.50000000E+00  8.00000000E-01  8.00000000E-01  1.50000000E+00  1.50000000E+00
  8.00000000E-01  8.00000000E-01  1.50000000E+00  1.50000000E+00  8.00000000E-01
  8.00000000E-01  1.50000000E+00  1.50000000E+00  8.00000000E-01  8.00000000E-01
  1.50000000E+00  1.50000000E+00  8.00000000E-01  8.00000000E-01  1.50000000E+00
  1.50000000E+00  8.00000000E-01  8.00000000E-01  1.50000000E+00  1.50000000E+00
  8.00000000E-01  8.00000000E-01  1.50000000E+00  1.50000000E+00  8.00000000E-01
  8.00000000E-01  1.50000000E+00  1.50000000E+00  8.00000000E-01  8.00000000E-01
  1.50000000E+00  1.50000000E+00  8.00000000E-01  8.00000000E-01  1.50000000E+00
  1.50000000E+00  8.00000000E-01  8.00000000E-01  1.50000000E+00  1.50000000E+00
  8.00000000E-01  8.00000000E-01  1.50000000E+00  1.50000000E+00  8.00000000E-01
  8.00000000E-01  1.50000000E+00  1.50000000E+00  8.00000000E-01  8.00000000E-01
  1.50000000E+00  1.50000000E+00  8.00000000E-01  8.00000000E-01  1.50000000E+00
  1.50000000E+00  8.00000000E-01  8.00000000E-01  1.50000000E+00  1.50000000E+00
  8.00000000E-01  8.00000000E-01  1.50000000E+00  1.50000000E+00  8.00000000E-01
  8.00000000E-01  1.50000000E+00  1.50000000E+00  8.00000000E-01  8.00000000E-01
  1.50000000E+00  1.50000000E+00  8.00000000E-01  8.00000000E-01  1.50000000E+00
  1.50000000E+00  8.00000000E-01  8.00000000E-01  1.50000000E+00  1.50000000E+00
  8.00000000E-01  8.00000000E-01  1.50000000E+00  1.50000000E+00  8.00000000E-01
  8.00000000E-01  1.50000000E+00  1.50000000E+00  8.00000000E-01  8.00000000E-01
  1.50000000E+00  1.50000000E+00  8.00000000E-01  8.00000000E-01  1.50000000E+00
  1.50000000E+00  8.00000000E-01  8.00000000E-01  1.50000000E+00  1.50000000E+00
  8.00000000E-01  8.00000000E-01  1.50000000E+00  1.50000000E+00  8.00000000E-01
  8.00000000E-01  1.50000000E+00  1.50000000E+00  8.00000000E-01  8.00000000E-01
  1.50000000E+00  1.50000000E+00  8.00000000E-01  8.00000000E-01  1.50000000E+00
  1.50000000E+00  8.00000000E-01  8.00000000E-01  1.50000000E+00  1.50000000E+00
  8.00000000E-01  8.00000000E-01  1.50000000E+00  1.50000000E+00  8.00000000E-01
  8.00000000E-01  1.50000000E+00  1.50000000E+00  8.00000000E-01  8.00000000E-01
  1.50000000E+00  1.50000000E+00  8.00000000E-01  8.00000000E-01  1.50000000E+00
  1.50000000E+00  8.00000000E-01  8.00000000E-01  1.50000000E+00  1.50000000E+00
  8.00000000E-01  8.00000000E-01  1.50000000E+00  1.50000000E+00  8.00000000E-01
  8.00000000E-01  1.50000000E+00  1.50000000E+00  8.00000000E-01  8.00000000E-01
  1.50000000E+00  1.50000000E+00  8.00000000E-01  8.00000000E-01  1.50000000E+00
  1.50000000E+00  8.00000000E-01  8.00000000E-01  1.50000000E+00  1.50000000E+00
  8.00000000E-01  8.00000000E-01  1.50000000E+00  1.50000000E+00  8.00000000E-01
  8.00000000E-01  1.50000000E+00  1.50000000E+00  8.00000000E-01  8.00000000E-01
  1.50000000E+00  1.50000000E+00  8.00000000E-01  8.00000000E-01  1.50000000E+00
  1.50000000E+00  8.00000000E-01  8.00000000E-01  1.50000000E+00  1.50000000E+00
  8.00000000E-01  8.00000000E-01  1.50000000E+00  1.50000000E+00  8.00000000E-01
  8.00000000E-01  1.50000000E+00  1.50000000E+00  8.00000000E-01  8.00000000E-01
  1.50000000E+00  1.50000000E+00  8.00000000E-01  8.00000000E-01  1.50000000E+00
  1.50000000E+00  8.00000000E-01  8.00000000E-01  1.50000000E+00  1.50000000E+00
  8.00000000E-01  8.00000000E-01  1.50000000E+00  1.50000000E+00  8.00000000E-01
  8.00000000E-01  1.50000000E+00  1.50000000E+00  8.00000000E-01  8.00000000E-01
  1.50000000E+00  1.50000000E+00  8.00000000E-01  8.00000000E-01  1.50000000E+00
  1.50000000E+00  8.00000000E-01  8.00000000E-01  1.50000000E+00  1.50000000E+00
  8.00000000E-01  8.00000000E-01  1.50000000E+00  1.50000000E+00  8.00000000E-01
  8.00000000E-01  1.50000000E+00  1.50000000E+00  8.00000000E-01  8.00000000E-01
  1.50000000E+00  1.50000000E+00  8.00000000E-01  8.00000000E-01  1.50000000E+00
  1.50000000E+00  8.00000000E-01  8.00000000E-01  1.50000000E+00  1.50000000E+00
  8.00000000E-01  8.00000000E-01  1.50000000E+00  1.50000000E+00  8.00000000E-01
  8.00000000E-01  1.50000000E+00  1.50000000E+00  8.00000000E-01  8.00000000E-01
  1.50000000E+00  1.50000000E+00  8.00000000E-01  8.00000000E-01  1.50000000E+00
  1.50000000E+00  8.00000000E-01  8.00000000E-01  1.50000000E+00  1.50000000E+00
  8.00000000E-01  8.00000000E-01  1.50000000E+00  1.50000000E+00  8.00000000E-01
  8.00000000E-01  1.50000000E+00  1.50000000E+00  8.00000000E-01  8.00000000E-01
  1.50000000E+00  1.50000000E+00  8.00000000E-01  8.00000000E-01  1.50000000E+00
  1.50000000E+00  8.00000000E-01  8.00000000E-01  1.50000000E+00  1.50000000E+00
  8.00000000E-01  8.00000000E-01  1.50000000E+00  1.50000000E+00  8.00000000E-01
  8.00000000E-01  1.50000000E+00  1.50000000E+00  8.00000000E-01  8.00000000E-01
  1.50000000E+00  1.50000000E+00  8.00000000E-01  8.00000000E-01  1.50000000E+00
  1.50000000E+00  8.00000000E-01  8.00000000E-01  1.50000000E+00  1.50000000E+00
  8.00000000E-01  8.00000000E-01  1.50000000E+00  1.50000000E+00  8.00000000E-01
  8.00000000E-01  1.50000000E+00  1.50000000E+00  8.00000000E-01  8.00000000E-01
  1.50000000E+00  1.50000000E+00  8.00000000E-01  8.00000000E-01  1.50000000E+00
  1.50000000E+00  8.00000000E-01  8.00000000E-01  1.50000000E+00  1.50000000E+00
  8.00000000E-01  8.00000000E-01  1.50000000E+00  1.50000000E+00  8.00000000E-01
  8.00000000E-01  1.50000000E+00  1.50000000E+00  8.00000000E-01  8.00000000E-01
  1.50000000E+00  1.50000000E+00  8.00000000E-01  8.00000000E-01  1.50000000E+00
  1.50000000E+00  8.00000000E-01  8.00000000E-01  1.50000000E+00  1.50000000E+00
  8.00000000E-01  8.00000000E-01  1.50000000E+00  1.50000000E+00  8.00000000E-01
  8.00000000E-01  1.50000000E+00  1.50000000E+00  8.00000000E-01  8.00000000E-01
  1.50000000E+00  1.50000000E+00  8.00000000E-01  8.00000000E-01  1.50000000E+00
  1.50000000E+00  8.00000000E-01  8.00000000E-01  1.50000000E+00  1.50000000E+00
  8.00000000E-01  8.00000000E-01  1.50000000E+00  1.50000000E+00  8.00000000E-01
  8.00000000E-01  1.50000000E+00  1.50000000E+00  8.00000000E-01  8.00000000E-01
  1.50000000E+00  1.50000000E+00  8.00000000E-01  8.00000000E-01  1.50000000E+00
  1.50000000E+00  8.00000000E-01  8.00000000E-01  1.50000000E+00  1.50000000E+00
  8.00000000E-01  8.00000000E-01  1.50000000E+00  1.50000000E+00  8.00000000E-01
  8.00000000E-01  1.50000000E+00  1.50000000E+00  8.00000000E-01  8.00000000E-01
  1.50000000E+00  1.50000000E+00  8.00000000E-01  8.00000000E-01  1.50000000E+00
  1.50000000E+00  8.00000000E-01  8.00000000E-01  1.50000000E+00  1.50000000E+00
  8.00000000E-01  8.00000000E-01  1.50000000E+00  1.50000000E+00  8.00000000E-01
  8.00000000E-01  1.50000000E+00  1.50000000E+00  8.00000000E-01  8.00000000E-01
  1.50000000E+00  1.50000000E+00  8.00000000E-01  8.00000000E-01  1.50000000E+00
  1.50000000E+00  8.00000000E-01  8.00000000E-01  1.50000000E+00  1.50000000E+00
  8.00000000E-01  8.00000000E-01  1.50000000E+00  1.50000000E+00  8.00000000E-01
  8.00000000E-01  1.50000000E+00  1.50000000E+00  8.00000000E-01  8.00000000E-01
  1.50000000E+00  1.50000000E+00  8.00000000E-01  8.00000000E-01  1.50000000E+00
  1.50000000E+00  8.00000000E-01  8.00000000E-01  1.50000000E+00  1.50000000E+00
  8.00000000E-01  8.00000000E-01  1.50000000E+00  1.50000000E+00  8.00000000E-01
  8.00000000E-01  1.50000000E+00  1.50000000E+00  8.00000000E-01  8.00000000E-01
  1.50000000E+00  1.50000000E+00  8.00000000E-01  8.00000000E-01  1.50000000E+00
  1.50000000E+00  8.00000000E-01  8.00000000E-01  1.50000000E+00  1.50000000E+00
  8.00000000E-01  8.00000000E-01  1.50000000E+00  1.50000000E+00  8.00000000E-01
  8.00000000E-01  1.50000000E+00  1.50000000E+00  8.00000000E-01  8.00000000E-01
  1.50000000E+00  1.50000000E+00  8.00000000E-01  8.00000000E-01  1.50000000E+00
  1.50000000E+00  8.00000000E-01  8.00000000E-01  1.50000000E+00  1.50000000E+00
  8.00000000E-01  8.00000000E-01  1.50000000E+00  1.50000000E+00  8.00000000E-01
  8.00000000E-01  1.50000000E+00  1.50000000E+00  8.00000000E-01  8.00000000E-01
  1.50000000E+00  1.50000000E+00  8.00000000E-01  8.00000000E-01  1.50000000E+00
  1.50000000E+00  8.00000000E-01  8.00000000E-01  1.50000000E+00  1.50000000E+00
  8.00000000E-01  8.00000000E-01  1.50000000E+00  1.50000000E+00  8.00000000E-01
  8.00000000E-01  1.50000000E+00  1.50000000E+00  8.00000000E-01  8.00000000E-01
  1.50000000E+00  1.50000000E+00  8.00000000E-01  8.00000000E-01  1.50000000E+00
  1.50000000E+00  8.00000000E-01  8.00000000E-01  1.50000000E+00  1.50000000E+00
  8.00000000E-01  8.00000000E-01  1.50000000E+00  1.50000000E+00  8.00000000E-01
  8.00000000E-01  1.50000000E+00  1.50000000E+00  8.00000000E-01  8.00000000E-01
  1.50000000E+00  1.50000000E+00  8.00000000E-01  8.00000000E-01  1.50000000E+00
  1.50000000E+00  8.00000000E-01  8.00000000E-01  1.50000000E+00  1.50000000E+00
  8.00000000E-01  8.00000000E-01  1.50000000E+00  1.50000000E+00  8.00000000E-01
  8.00000000E-01  1.50000000E+00  1.50000000E+00  8.00000000E-01  8.00000000E-01
  1.50000000E+00  1.50000000E+00  8.00000000E-01  8.00000000E-01  1.50000000E+00
  1.50000000E+00  8.00000000E-01  8.00000000E-01  1.50000000E+00  1.50000000E+00
  8.00000000E-01  8.00000000E-01  1.50000000E+00  1.50000000E+00  8.00000000E-01
  8.00000000E-01  1.50000000E+00  1.50000000E+00  8.00000000E-01  8.00000000E-01
  1.50000000E+00  1.50000000E+00  8.00000000E-01  8.00000000E-01  1.50000000E+00
  1.50000000E+00  8.00000000E-01  8.00000000E-01  1.50000000E+00  1.50000000E+00
  8.00000000E-01  8.00000000E-01  1.50000000E+00  1.50000000E+00  8.00000000E-01
  8.00000000E-01  1.50000000E+00  1.50000000E+00  8.00000000E-01  8.00000000E-01
  1.50000000E+00  1.50000000E+00  8.00000000E-01  8.00000000E-01  1.50000000E+00
  1.50000000E+00  8.00000000E-01  8.00000000E-01  1.50000000E+00  1.50000000E+00
  8.00000000E-01  8.00000000E-01  1.50000000E+00  1.50000000E+00  8.00000000E-01
  8.00000000E-01  1.50000000E+00  1.50000000E+00  8.00000000E-01  8.00000000E-01
  1.50000000E+00  1.50000000E+00  8.00000000E-01  8.00000000E-01  1.50000000E+00
  1.50000000E+00  8.00000000E-01  8.00000000E-01  1.50000000E+00  1.50000000E+00
  8.00000000E-01  8.00000000E-01  1.50000000E+00  1.50000000E+00  8.00000000E-01
  8.00000000E-01  1.50000000E+00  1.50000000E+00  8.00000000E-01  8.00000000E-01
  1.50000000E+00  1.50000000E+00  8.00000000E-01  8.00000000E-01  1.50000000E+00
  1.50000000E+00  8.00000000E-01  8.00000000E-01  1.50000000E+00  1.50000000E+00
  8.00000000E-01  8.00000000E-01  1.50000000E+00  1.50000000E+00  8.00000000E-01
  8.00000000E-01  1.50000000E+00  1.50000000E+00  8.00000000E-01  8.00000000E-01
  1.50000000E+00  1.50000000E+00  8.00000000E-01  8.00000000E-01  1.50000000E+00
  1.50000000E+00  8.00000000E-01  8.00000000E-01  1.50000000E+00  1.50000000E+00
  8.00000000E-01  8.00000000E-01  1.50000000E+00  1.50000000E+00  8.00000000E-01
  8.00000000E-01  1.50000000E+00  1.50000000E+00  8.00000000E-01  8.00000000E-01
  1.50000000E+00  1.50000000E+00  8.00000000E-01  8.00000000E-01  1.50000000E+00
  1.50000000E+00  8.00000000E-01  8.00000000E-01  1.50000000E+00  1.50000000E+00
  8.00000000E-01  8.00000000E-01  1.50000000E+00  1.50000000E+00  8.00000000E-01
  8.00000000E-01  1.50000000E+00  1.50000000E+00  8.00000000E-01  8.00000000E-01
  1.50000000E+00  1.50000000E+00  8.00000000E-01  8.00000000E-01  1.50000000E+00
  1.50000000E+00  8.00000000E-01  8.00000000E-01  1.50000000E+00  1.50000000E+00
  8.00000000E-01  8.00000000E-01  1.50000000E+00  1.50000000E+00  8.00000000E-01
  8.00000000E-01  1.50000000E+00  1.50000000E+00  8.00000000E-01  8.00000000E-01
  1.50000000E+00  1.50000000E+00  8.00000000E-01  8.00000000E-01  1.50000000E+00
  1.50000000E+00  8.00000000E-01  8.00000000E-01  1.50000000E+00  1.50000000E+00
  8.00000000E-01  8.00000000E-01  1.50000000E+00  1.50000000E+00  8.00000000E-01
  8.00000000E-01  1.50000000E+00  1.50000000E+00  8.00000000E-01  8.00000000E-01
  1.50000000E+00  1.50000000E+00  8.00000000E-01  8.00000000E-01  1.50000000E+00
  1.50000000E+00  8.00000000E-01  8.00000000E-01  1.50000000E+00  1.50000000E+00
  8.00000000E-01  8.00000000E-01  1.50000000E+00  1.50000000E+00  8.00000000E-01
  8.00000000E-01  1.50000000E+00  1.50000000E+00  8.00000000E-01  8.00000000E-01
  1.50000000E+00  1.50000000E+00  8.00000000E-01  8.00000000E-01  1.50000000E+00
  1.50000000E+00  8.00000000E-01  8.00000000E-01  1.50000000E+00  1.50000000E+00
  8.00000000E-01  8.00000000E-01  1.50000000E+00  1.50000000E+00  8.00000000E-01
  8.00000000E-01  1.50000000E+00  1.50000000E+00  8.00000000E-01  8.00000000E-01
  1.50000000E+00  1.50000000E+00  8.00000000E-01  8.00000000E-01  1.50000000E+00
  1.50000000E+00  8.00000000E-01  8.00000000E-01  1.50000000E+00  1.50000000E+00
  8.00000000E-01  8.00000000E-01  1.50000000E+00  1.50000000E+00  8.00000000E-01
  8.00000000E-01  1.50000000E+00  1.50000000E+00  8.00000000E-01  8.00000000E-01
  1.50000000E+00  1.50000000E+00  8.00000000E-01  8.00000000E-01  1.50000000E+00
  1.50000000E+00  8.00000000E-01  8.00000000E-01  1.50000000E+00  1.50000000E+00
  8.00000000E-01  8.00000000E-01  1.50000000E+00  1.50000000E+00  8.00000000E-01
  8.00000000E-01  1.50000000E+00  1.50000000E+00  8.00000000E-01  8.00000000E-01
  1.50000000E+00  1.50000000E+00  8.00000000E-01  8.00000000E-01  1.50000000E+00
  1.50000000E+00  8.00000000E-01  8.00000000E-01  1.50000000E+00  1.50000000E+00
  8.00000000E-01  8.00000000E-01  1.50000000E+00  1.50000000E+00  8.00000000E-01
  8.00000000E-01  1.50000000E+00  1.50000000E+00  8.00000000E-01  8.00000000E-01
  1.50000000E+00  1.50000000E+00  8.00000000E-01  8.00000000E-01  1.50000000E+00
  1.50000000E+00  8.00000000E-01  8.00000000E-01  1.50000000E+00  1.50000000E+00
  8.00000000E-01  8.00000000E-01  1.50000000E+00  1.50000000E+00  8.00000000E-01
  8.00000000E-01  1.50000000E+00  1.50000000E+00  8.00000000E-01  8.00000000E-01
  1.50000000E+00  1.50000000E+00  8.00000000E-01  8.00000000E-01  1.50000000E+00
  1.50000000E+00  8.00000000E-01  8.00000000E-01  1.50000000E+00  1.50000000E+00
  8.00000000E-01  8.00000000E-01  1.50000000E+00  1.50000000E+00  8.00000000E-01
  8.00000000E-01  1.50000000E+00  1.50000000E+00  8.00000000E-01  8.00000000E-01
  1.50000000E+00  1.50000000E+00  8.00000000E-01  8.00000000E-01  1.50000000E+00
  1.50000000E+00  8.00000000E-01  8.00000000E-01  1.50000000E+00  1.50000000E+00
  8.00000000E-01  8.00000000E-01  1.50000000E+00  1.50000000E+00  8.00000000E-01
  8.00000000E-01  1.50000000E+00  1.50000000E+00  8.00000000E-01  8.00000000E-01
  1.50000000E+00  1.50000000E+00  8.00000000E-01  8.00000000E-01  1.50000000E+00
  1.50000000E+00  8.00000000E-01  8.00000000E-01  1.50000000E+00  1.50000000E+00
  8.00000000E-01  8.00000000E-01  1.50000000E+00  1.50000000E+00  8.00000000E-01
  8.00000000E-01  1.50000000E+00  1.50000000E+00  8.00000000E-01  8.00000000E-01
  1.50000000E+00  1.50000000E+00  8.00000000E-01  8.00000000E-01  1.50000000E+00
  1.50000000E+00  8.00000000E-01  8.00000000E-01  1.50000000E+00  1.50000000E+00
  8.00000000E-01  8.00000000E-01  1.50000000E+00  1.50000000E+00  8.00000000E-01
  8.00000000E-01  1.50000000E+00  1.50000000E+00  8.00000000E-01  8.00000000E-01
  1.50000000E+00  1.50000000E+00  8.00000000E-01  8.00000000E-01  1.50000000E+00
  1.50000000E+00  8.00000000E-01  8.00000000E-01  1.50000000E+00  1.50000000E+00
  8.00000000E-01  8.00000000E-01  1.50000000E+00  1.50000000E+00  8.00000000E-01
  8.00000000E-01  1.50000000E+00  1.50000000E+00  8.00000000E-01  8.00000000E-01
  1.50000000E+00  1.50000000E+00  8.00000000E-01  8.00000000E-01  1.50000000E+00
  1.50000000E+00  8.00000000E-01  8.00000000E-01  1.50000000E+00  1.50000000E+00
  8.00000000E-01  8.00000000E-01  1.50000000E+00  1.50000000E+00  8.00000000E-01
  8.00000000E-01  1.50000000E+00  1.50000000E+00  8.00000000E-01  8.00000000E-01
  1.50000000E+00  1.50000000E+00  8.00000000E-01  8.00000000E-01  1.50000000E+00
  1.50000000E+00  8.00000000E-01  8.00000000E-01  1.50000000E+00  1.50000000E+00
  8.00000000E-01  8.00000000E-01  1.50000000E+00  1.50000000E+00  8.00000000E-01
  8.00000000E-01  1.50000000E+00  1.50000000E+00  8.00000000E-01  8.00000000E-01
  1.50000000E+00  1.50000000E+00  8.00000000E-01  8.00000000E-01  1.50000000E+00
  1.50000000E+00  8.00000000E-01  8.00000000E-01  1.50000000E+00  1.50000000E+00
  8.00000000E-01  8.00000000E-01  1.50000000E+00  1.50000000E+00  8.00000000E-01
  8.00000000E-01  1.50000000E+00  1.50000000E+00  8.00000000E-01  8.00000000E-01
  1.50000000E+00  1.50000000E+00  8.00000000E-01  8.00000000E-01  1.50000000E+00
  1.50000000E+00  8.00000000E-01  8.00000000E-01  1.50000000E+00  1.50000000E+00
  8.00000000E-01  8.00000000E-01  1.50000000E+00  1.50000000E+00  8.00000000E-01
  8.00000000E-01  1.50000000E+00  1.50000000E+00  8.00000000E-01  8.00000000E-01
  1.50000000E+00  1.50000000E+00  8.00000000E-01  8.00000000E-01  1.50000000E+00
  1.50000000E+00  8.00000000E-01  8.00000000E-01  1.50000000E+00  1.50000000E+00
  8.00000000E-01  8.00000000E-01  1.50000000E+00  1.50000000E+00  8.00000000E-01
  8.00000000E-01  1.50000000E+00  1.50000000E+00  8.00000000E-01  8.00000000E-01
  1.50000000E+00  1.50000000E+00  8.00000000E-01  8.00000000E-01  1.50000000E+00
  1.50000000E+00  8.00000000E-01  8.00000000E-01  1.50000000E+00  1.50000000E+00
  8.00000000E-01  8.00000000E-01  1.50000000E+00  1.50000000E+00  8.00000000E-01
  8.00000000E-01  1.50000000E+00  1.50000000E+00  8.00000000E-01  8.00000000E-01
  1.50000000E+00  1.50000000E+00  8.00000000E-01  8.00000000E-01  1.50000000E+00
  1.50000000E+00  8.00000000E-01  8.00000000E-01  1.50000000E+00  1.50000000E+00
  8.00000000E-01  8.00000000E-01  1.50000000E+00  1.50000000E+00  8.00000000E-01
  8.00000000E-01  1.50000000E+00  1.50000000E+00  8.00000000E-01  8.00000000E-01
  1.50000000E+00  1.50000000E+00  8.00000000E-01  8.00000000E-01  1.50000000E+00
  1.50000000E+00  8.00000000E-01  8.00000000E-01  1.50000000E+00  1.50000000E+00
  8.00000000E-01  8.00000000E-01  1.50000000E+00  1.50000000E+00  8.00000000E-01
  8.00000000E-01  1.50000000E+00  1.50000000E+00  8.00000000E-01  8.00000000E-01
  1.50000000E+00  1.50000000E+00  8.00000000E-01  8.00000000E-01  1.50000000E+00
  1.50000000E+00  8.00000000E-01  8.00000000E-01  1.50000000E+00  1.50000000E+00
  8.00000000E-01  8.00000000E-01  1.50000000E+00  1.50000000E+00  8.00000000E-01
  8.00000000E-01  1.50000000E+00  1.50000000E+00  8.00000000E-01  8.00000000E-01
  1.50000000E+00  1.50000000E+00  8.00000000E-01  8.00000000E-01  1.50000000E+00
  1.50000000E+00  8.00000000E-01  8.00000000E-01  1.50000000E+00  1.50000000E+00
  8.00000000E-01  8.00000000E-01  1.50000000E+00  1.50000000E+00  8.00000000E-01
  8.00000000E-01  1.50000000E+00  1.50000000E+00  8.00000000E-01  8.00000000E-01
  1.50000000E+00  1.50000000E+00  8.00000000E-01  8.00000000E-01  1.50000000E+00
  1.50000000E+00  8.00000000E-01  8.00000000E-01  1.50000000E+00  1.50000000E+00
  8.00000000E-01  8.00000000E-01  1.50000000E+00  1.50000000E+00  8.00000000E-01
  8.00000000E-01  1.50000000E+00  1.50000000E+00  8.00000000E-01  8.00000000E-01
  1.50000000E+00  1.50000000E+00  8.00000000E-01  8.00000000E-01  1.50000000E+00
  1.50000000E+00  8.00000000E-01  8.00000000E-01  1.50000000E+00  1.50000000E+00
  8.00000000E-01  8.00000000E-01  1.50000000E+00  1.50000000E+00  8.00000000E-01
  8.00000000E-01  1.50000000E+00  1.50000000E+00  8.00000000E-01  8.00000000E-01
  1.50000000E+00  1.50000000E+00  8.00000000E-01  8.00000000E-01  1.50000000E+00
  1.50000000E+00  8.00000000E-01  8.00000000E-01  1.50000000E+00  1.50000000E+00
  8.00000000E-01  8.00000000E-01  1.50000000E+00  1.50000000E+00  8.00000000E-01
  8.00000000E-01  1.50000000E+00  1.50000000E+00  8.00000000E-01  8.00000000E-01
  1.50000000E+00  1.50000000E+00  8.00000000E-01  8.00000000E-01  1.50000000E+00
  1.50000000E+00  8.00000000E-01  8.00000000E-01  1.50000000E+00  1.50000000E+00
  8.00000000E-01  8.00000000E-01  1.50000000E+00  1.50000000E+00  8.00000000E-01
  8.00000000E-01  1.50000000E+00  1.50000000E+00  8.00000000E-01  8.00000000E-01
  1.50000000E+00  1.50000000E+00  8.00000000E-01  8.00000000E-01  1.50000000E+00
  1.50000000E+00  8.00000000E-01  8.00000000E-01  1.50000000E+00  1.50000000E+00
  8.00000000E-01  8.00000000E-01  1.50000000E+00  1.50000000E+00  8.00000000E-01
  8.00000000E-01  1.50000000E+00  1.50000000E+00  8.00000000E-01  8.00000000E-01
  1.50000000E+00  1.50000000E+00  8.00000000E-01  8.00000000E-01  1.50000000E+00
  1.50000000E+00  8.00000000E-01  8.00000000E-01  1.50000000E+00  1.50000000E+00
  8.00000000E-01  8.00000000E-01  1.50000000E+00  1.50000000E+00  8.00000000E-01
  8.00000000E-01  1.50000000E+00  1.50000000E+00  8.00000000E-01  8.00000000E-01
  1.50000000E+00  1.50000000E+00  8.00000000E-01  8.00000000E-01  1.50000000E+00
  1.50000000E+00  8.00000000E-01  8.00000000E-01  1.50000000E+00  1.50000000E+00
  8.00000000E-01  8.00000000E-01  1.50000000E+00  1.50000000E+00  8.00000000E-01
  8.00000000E-01  1.50000000E+00  1.50000000E+00  8.00000000E-01  8.00000000E-01
  1.50000000E+00  1.50000000E+00  8.00000000E-01  8.00000000E-01  1.50000000E+00
  1.50000000E+00  8.00000000E-01  8.00000000E-01  1.50000000E+00  1.50000000E+00
  8.00000000E-01  8.00000000E-01  1.50000000E+00  1.50000000E+00  8.00000000E-01
  8.00000000E-01  1.50000000E+00  1.50000000E+00  8.00000000E-01  8.00000000E-01
  1.50000000E+00  1.50000000E+00  8.00000000E-01  8.00000000E-01  1.50000000E+00
  1.50000000E+00  8.00000000E-01  8.00000000E-01  1.50000000E+00  1.50000000E+00
  8.00000000E-01  8.00000000E-01  1.50000000E+00  1.50000000E+00  8.00000000E-01
  8.00000000E-01  1.50000000E+00  1.50000000E+00  8.00000000E-01  8.00000000E-01
  1.50000000E+00  1.50000000E+00  8.00000000E-01  8.00000000E-01  1.50000000E+00
%FLAG SCREEN                                                                    
%FORMAT(5E16.8)                                                                 
  8.00000000E-01  8.00000000E-01  8.00000000E-01  8.00000000E-01  8.00000000E-01
  8.00000000E-01  8.00000000E-01  8.00000000E-01  8.00000000E-01  8.00000000E-01
  8.50000000E-01  7.20000000E-01  7.90000000E-01  7.20000000E-01  7.90000000E-01
  7.20000000E-01  7.20000000E-01  8.50000000E-01  7.90000000E-01  7.20000000E-01
  7.20000000E-01  7.90000000E-01  7.20000000E-01  7.90000000E-01  8.50000000E-01
  8.50000000E-01  8.50000000E-01  8.50000000E-01  8.50000000E-01  8.50000000E-01
  8.50000000E-01  8.50000000E-01  8.50000000E-01  8.50000000E-01  8.00000000E-01
  8.50000000E-01  8.50000000E-01  8.50000000E-01  8.00000000E-01  8.50000000E-01
  8.50000000E-01  8.50000000E-01  8.00000000E-01  8.50000000E-01  8.50000000E-01
  8.50000000E-01  8.00000000E-01  8.50000000E-01  8.50000000E-01  8.50000000E-01
  8.00000000E-01  8.50000000E-01  8.50000000E-01  8.50000000E-01  8.00000000E-01
  8.50000000E-01  8.50000000E-01  8.50000000E-01  8.00000000E-01  8.50000000E-01
  8.50000000E-01  8.50000000E-01  8.00000000E-01  8.50000000E-01  8.50000000E-01
  8.50000000E-01  8.00000000E-01  8.50000000E-01  8.50000000E-01  8.50000000E-01
  8.00000000E-01  8.50000000E-01  8.50000000E-01  8.50000000E-01  8.00000000E-01
  8.50000000E-01  8.50000000E-01  8.50000000E-01  8.00000000E-01  8.50000000E-01
  8.50000000E-01  8.50000000E-01  8.00000000E-01  8.50000000E-01  8.50000000E-01
  8.50000000E-01  8.00000000E-01  8.50000000E-01  8.50000000E-01  8.50000000E-01
  8.00000000E-01  8.50000000E-01  8.50000000E-01  8.50000000E-01  8.00000000E-01
  8.50000000E-01  8.50000000E-01  8.50000000E-01  8.00000000E-01  8.50000000E-01
  8.50000000E-01  8.50000000E-01  8.00000000E-01  8.50000000E-01  8.50000000E-01
  8.50000000E-01  8.00000000E-01  8.50000000E-01  8.50000000E-01  8.50000000E-01
  8.00000000E-01  8.50000000E-01  8.50000000E-01  8.50000000E-01  8.00000000E-01
  8.50000000E-01  8.50000000E-01  8.50000000E-01  8.00000000E-01  8.50000000E-01
  8.50000000E-01  8.50000000E-01  8.00000000E-01  8.50000000E-01  8.50000000E-01
  8.50000000E-01  8.00000000E-01  8.50000000E-01  8.50000000E-01  8.50000000E-01
  8.00000000E-01  8.50000000E-01  8.50000000E-01  8.50000000E-01  8.00000000E-01
  8.50000000E-01  8.50000000E-01  8.50000000E-01  8.00000000E-01  8.50000000E-01
  8.50000000E-01  8.50000000E-01  8.00000000E-01  8.50000000E-01  8.50000000E-01
  8.50000000E-01  8.00000000E-01  8.50000000E-01  8.50000000E-01  8.50000000E-01
  8.00000000E-01  8.50000000E-01  8.50000000E-01  8.50000000E-01  8.00000000E-01
  8.50000000E-01  8.50000000E-01  8.50000000E-01  8.00000000E-01  8.50000000E-01
  8.50000000E-01  8.50000000E-01  8.00000000E-01  8.50000000E-01  8.50000000E-01
  8.50000000E-01  8.00000000E-01  8.50000000E-01  8.50000000E-01  8.50000000E-01
  8.00000000E-01  8.50000000E-01  8.50000000E-01  8.50000000E-01  8.00000000E-01
  8.50000000E-01  8.50000000E-01  8.50000000E-01  8.00000000E-01  8.50000000E-01
  8.50000000E-01  8.50000000E-01  8.00000000E-01  8.50000000E-01  8.50000000E-01
  8.50000000E-01  8.00000000E-01  8.50000000E-01  8.50000000E-01  8.50000000E-01
  8.00000000E-01  8.50000000E-01  8.50000000E-01  8.50000000E-01  8.00000000E-01
  8.50000000E-01  8.50000000E-01  8.50000000E-01  8.00000000E-01  8.50000000E-01
  8.50000000E-01  8.50000000E-01  8.00000000E-01  8.50000000E-01  8.50000000E-01
  8.50000000E-01  8.00000000E-01  8.50000000E-01  8.50000000E-01  8.50000000E-01
  8.00000000E-01  8.50000000E-01  8.50000000E-01  8.50000000E-01  8.00000000E-01
  8.50000000E-01  8.50000000E-01  8.50000000E-01  8.00000000E-01  8.50000000E-01
  8.50000000E-01  8.50000000E-01  8.00000000E-01  8.50000000E-01  8.50000000E-01
  8.50000000E-01  8.00000000E-01  8.50000000E-01  8.50000000E-01  8.50000000E-01
  8.00000000E-01  8.50000000E-01  8.50000000E-01  8.50000000E-01  8.00000000E-01
  8.50000000E-01  8.50000000E-01  8.50000000E-01  8.00000000E-01  8.50000000E-01
  8.50000000E-01  8.50000000E-01  8.00000000E-01  8.50000000E-01  8.50000000E-01
  8.50000000E-01  8.00000000E-01  8.50000000E-01  8.50000000E-01  8.50000000E-01
  8.00000000E-01  8.50000000E-01  8.50000000E-01  8.50000000E-01  8.00000000E-01
  8.50000000E-01  8.50000000E-01  8.50000000E-01  8.00000000E-01  8.50000000E-01
  8.50000000E-01  8.50000000E-01  8.00000000E-01  8.50000000E-01  8.50000000E-01
  8.50000000E-01  8.00000000E-01  8.50000000E-01  8.50000000E-01  8.50000000E-01
  8.00000000E-01  8.50000000E-01  8.50000000E-01  8.50000000E-01  8.00000000E-01
  8.50000000E-01  8.50000000E-01  8.50000000E-01  8.00000000E-01  8.50000000E-01
  8.50000000E-01  8.50000000E-01  8.00000000E-01  8.50000000E-01  8.50000000E-01
  8.50000000E-01  8.00000000E-01  8.50000000E-01  8.50000000E-01  8.50000000E-01
  8.00000000E-01  8.50000000E-01  8.50000000E-01  8.50000000E-01  8.00000000E-01
  8.50000000E-01  8.50000000E-01  8.50000000E-01  8.00000000E-01  8.50000000E-01
  8.50000000E-01  8.50000000E-01  8.00000000E-01  8.50000000E-01  8.50000000E-01
  8.50000000E-01  8.00000000E-01  8.50000000E-01  8.50000000E-01  8.50000000E-01
  8.00000000E-01  8.50000000E-01  8.50000000E-01  8.50000000E-01  8.00000000E-01
  8.50000000E-01  8.50000000E-01  8.50000000E-01  8.00000000E-01  8.50000000E-01
  8.50000000E-01  8.50000000E-01  8.00000000E-01  8.50000000E-01  8.50000000E-01
  8.50000000E-01  8.00000000E-01  8.50000000E-01  8.50000000E-01  8.50000000E-01
  8.00000000E-01  8.50000000E-01  8.50000000E-01  8.50000000E-01  8.00000000E-01
  8.50000000E-01  8.50000000E-01  8.50000000E-01  8.00000000E-01  8.50000000E-01
  8.50000000E-01  8.50000000E-01  8.00000000E-01  8.50000000E-01  8.50000000E-01
  8.50000000E-01  8.00000000E-01  8.50000000E-01  8.50000000E-01  8.50000000E-01
  8.00000000E-01  8.50000000E-01  8.50000000E-01  8.50000000E-01  8.00000000E-01
  8.50000000E-01  8.50000000E-01  8.50000000E-01  8.00000000E-01  8.50000000E-01
  8.50000000E-01  8.50000000E-01  8.00000000E-01  8.50000000E-01  8.50000000E-01
  8.50000000E-01  8.00000000E-01  8.50000000E-01  8.50000000E-01  8.50000000E-01
  8.00000000E-01  8.50000000E-01  8.50000000E-01  8.50000000E-01  8.00000000E-01
  8.50000000E-01  8.50000000E-01  8.50000000E-01  8.00000000E-01  8.50000000E-01
  8.50000000E-01  8.50000000E-01  8.00000000E-01  8.50000000E-01  8.50000000E-01
  8.50000000E-01  8.00000000E-01  8.50000000E-01  8.50000000E-01  8.50000000E-01
  8.00000000E-01  8.50000000E-01  8.50000000E-01  8.50000000E-01  8.00000000E-01
  8.50000000E-01  8.50000000E-01  8.50000000E-01  8.00000000E-01  8.50000000E-01
  8.50000000E-01  8.50000000E-01  8.00000000E-01  8.50000000E-01  8.50000000E-01
  8.50000000E-01  8.00000000E-01  8.50000000E-01  8.50000000E-01  8.50000000E-01
  8.00000000E-01  8.50000000E-01  8.50000000E-01  8.50000000E-01  8.00000000E-01
  8.50000000E-01  8.50000000E-01  8.50000000E-01  8.00000000E-01  8.50000000E-01
  8.50000000E-01  8.50000000E-01  8.00000000E-01  8.50000000E-01  8.50000000E-01
  8.50000000E-01  8.00000000E-01  8.50000000E-01  8.50000000E-01  8.50000000E-01
  8.00000000E-01  8.50000000E-01  8.50000000E-01  8.50000000E-01  8.00000000E-01
  8.50000000E-01  8.50000000E-01  8.50000000E-01  8.00000000E-01  8.50000000E-01
  8.50000000E-01  8.50000000E-01  8.00000000E-01  8.50000000E-01  8.50000000E-01
  8.50000000E-01  8.00000000E-01  8.50000000E-01  8.50000000E-01  8.50000000E-01
  8.00000000E-01  8.50000000E-01  8.50000000E-01  8.50000000E-01  8.00000000E-01
  8.50000000E-01  8.50000000E-01  8.50000000E-01  8.00000000E-01  8.50000000E-01
  8.50000000E-01  8.50000000E-01  8.00000000E-01  8.50000000E-01  8.50000000E-01
  8.50000000E-01  8.00000000E-01  8.50000000E-01  8.50000000E-01  8.50000000E-01
  8.00000000E-01  8.50000000E-01  8.50000000E-01  8.50000000E-01  8.00000000E-01
  8.50000000E-01  8.50000000E-01  8.50000000E-01  8.00000000E-01  8.50000000E-01
  8.50000000E-01  8.50000000E-01  8.00000000E-01  8.50000000E-01  8.50000000E-01
  8.50000000E-01  8.00000000E-01  8.50000000E-01  8.50000000E-01  8.50000000E-01
  8.00000000E-01  8.50000000E-01  8.50000000E-01  8.50000000E-01  8.00000000E-01
  8.50000000E-01  8.50000000E-01  8.50000000E-01  8.00000000E-01  8.50000000E-01
  8.50000000E-01  8.50000000E-01  8.00000000E-01  8.50000000E-01  8.50000000E-01
  8.50000000E-01  8.00000000E-01  8.50000000E-01  8.50000000E-01  8.50000000E-01
  8.00000000E-01  8.50000000E-01  8.50000000E-01  8.50000000E-01  8.00000000E-01
  8.50000000E-01  8.50000000E-01  8.50000000E-01  8.00000000E-01  8.50000000E-01
  8.50000000E-01  8.50000000E-01  8.00000000E-01  8.50000000E-01  8.50000000E-01
  8.50000000E-01  8.00000000E-01  8.50000000E-01  8.50000000E-01  8.50000000E-01
  8.00000000E-01  8.50000000E-01  8.50000000E-01  8.50000000E-01  8.00000000E-01
  8.50000000E-01  8.50000000E-01  8.50000000E-01  8.00000000E-01  8.50000000E-01
  8.50000000E-01  8.50000000E-01  8.00000000E-01  8.50000000E-01  8.50000000E-01
  8.50000000E-01  8.00000000E-01  8.50000000E-01  8.50000000E-01  8.50000000E-01
  8.00000000E-01  8.50000000E-01  8.50000000E-01  8.50000000E-01  8.00000000E-01
  8.50000000E-01  8.50000000E-01  8.50000000E-01  8.00000000E-01  8.50000000E-01
  8.50000000E-01  8.50000000E-01  8.00000000E-01  8.50000000E-01  8.50000000E-01
  8.50000000E-01  8.00000000E-01  8.50000000E-01  8.50000000E-01  8.50000000E-01
  8.00000000E-01  8.50000000E-01  8.50000000E-01  8.50000000E-01  8.00000000E-01
  8.50000000E-01  8.50000000E-01  8.50000000E-01  8.00000000E-01  8.50000000E-01
  8.50000000E-01  8.50000000E-01  8.00000000E-01  8.50000000E-01  8.50000000E-01
  8.50000000E-01  8.00000000E-01  8.50000000E-01  8.50000000E-01  8.50000000E-01
  8.00000000E-01  8.50000000E-01  8.50000000E-01  8.50000000E-01  8.00000000E-01
  8.50000000E-01  8.50000000E-01  8.50000000E-01  8.00000000E-01  8.50000000E-01
  8.50000000E-01  8.50000000E-01  8.00000000E-01  8.50000000E-01  8.50000000E-01
  8.50000000E-01  8.00000000E-01  8.50000000E-01  8.50000000E-01  8.50000000E-01
  8.00000000E-01  8.50000000E-01  8.50000000E-01  8.50000000E-01  8.00000000E-01
  8.50000000E-01  8.50000000E-01  8.50000000E-01  8.00000000E-01  8.50000000E-01
  8.50000000E-01  8.50000000E-01  8.00000000E-01  8.50000000E-01  8.50000000E-01
  8.50000000E-01  8.00000000E-01  8.50000000E-01  8.50000000E-01  8.50000000E-01
  8.00000000E-01  8.50000000E-01  8.50000000E-01  8.50000000E-01  8.00000000E-01
  8.50000000E-01  8.50000000E-01  8.50000000E-01  8.00000000E-01  8.50000000E-01
  8.50000000E-01  8.50000000E-01  8.00000000E-01  8.50000000E-01  8.50000000E-01
  8.50000000E-01  8.00000000E-01  8.50000000E-01  8.50000000E-01  8.50000000E-01
  8.00000000E-01  8.50000000E-01  8.50000000E-01  8.50000000E-01  8.00000000E-01
  8.50000000E-01  8.50000000E-01  8.50000000E-01  8.00000000E-01  8.50000000E-01
  8.50000000E-01  8.50000000E-01  8.00000000E-01  8.50000000E-01  8.50000000E-01
  8.50000000E-01  8.00000000E-01  8.50000000E-01  8.50000000E-01  8.50000000E-01
  8.00000000E-01  8.50000000E-01  8.50000000E-01  8.50000000E-01  8.00000000E-01
  8.50000000E-01  8.50000000E-01  8.50000000E-01  8.00000000E-01  8.50000000E-01
  8.50000000E-01  8.50000000E-01  8.00000000E-01  8.50000000E-01  8.50000000E-01
  8.50000000E-01  8.00000000E-01  8.50000000E-01  8.50000000E-01  8.50000000E-01
  8.00000000E-01  8.50000000E-01  8.50000000E-01  8.50000000E-01  8.00000000E-01
  8.50000000E-01  8.50000000E-01  8.50000000E-01  8.00000000E-01  8.50000000E-01
  8.50000000E-01  8.50000000E-01  8.00000000E-01  8.50000000E-01  8.50000000E-01
  8.50000000E-01  8.00000000E-01  8.50000000E-01  8.50000000E-01  8.50000000E-01
  8.00000000E-01  8.50000000E-01  8.50000000E-01  8.50000000E-01  8.00000000E-01
  8.50000000E-01  8.50000000E-01  8.50000000E-01  8.00000000E-01  8.50000000E-01
  8.50000000E-01  8.50000000E-01  8.00000000E-01  8.50000000E-01  8.50000000E-01
  8.50000000E-01  8.00000000E-01  8.50000000E-01  8.50000000E-01  8.50000000E-01
  8.00000000E-01  8.50000000E-01  8.50000000E-01  8.50000000E-01  8.00000000E-01
  8.50000000E-01  8.50000000E-01  8.50000000E-01  8.00000000E-01  8.50000000E-01
  8.50000000E-01  8.50000000E-01  8.00000000E-01  8.50000000E-01  8.50000000E-01
  8.50000000E-01  8.00000000E-01  8.50000000E-01  8.50000000E-01  8.50000000E-01
  8.00000000E-01  8.50000000E-01  8.50000000E-01  8.50000000E-01  8.00000000E-01
  8.50000000E-01  8.50000000E-01  8.50000000E-01  8.00000000E-01  8.50000000E-01
  8.50000000E-01  8.50000000E-01  8.00000000E-01  8.50000000E-01  8.50000000E-01
  8.50000000E-01  8.00000000E-01  8.50000000E-01  8.50000000E-01  8.50000000E-01
  8.00000000E-01  8.50000000E-01  8.50000000E-01  8.50000000E-01  8.00000000E-01
  8.50000000E-01  8.50000000E-01  8.50000000E-01  8.00000000E-01  8.50000000E-01
  8.50000000E-01  8.50000000E-01  8.00000000E-01  8.50000000E-01  8.50000000E-01
  8.50000000E-01  8.00000000E-01  8.50000000E-01  8.50000000E-01  8.50000000E-01
  8.00000000E-01  8.50000000E-01  8.50000000E-01  8.50000000E-01  8.00000000E-01
  8.50000000E-01  8.50000000E-01  8.50000000E-01  8.00000000E-01  8.50000000E-01
  8.50000000E-01  8.50000000E-01  8.00000000E-01  8.50000000E-01  8.50000000E-01
  8.50000000E-01  8.00000000E-01  8.50000000E-01  8.50000000E-01  8.50000000E-01
  8.00000000E-01  8.50000000E-01  8.50000000E-01  8.50000000E-01  8.00000000E-01
  8.50000000E-01  8.50000000E-01  8.50000000E-01  8.00000000E-01  8.50000000E-01
  8.50000000E-01  8.50000000E-01  8.00000000E-01  8.50000000E-01  8.50000000E-01
  8.50000000E-01  8.00000000E-01  8.50000000E-01  8.50000000E-01  8.50000000E-01
  8.00000000E-01  8.50000000E-01  8.50000000E-01  8.50000000E-01  8.00000000E-01
  8.50000000E-01  8.50000000E-01  8.50000000E-01  8.00000000E-01  8.50000000E-01
  8.50000000E-01  8.50000000E-01  8.00000000E-01  8.50000000E-01  8.50000000E-01
  8.50000000E-01  8.00000000E-01  8.50000000E-01  8.50000000E-01  8.50000000E-01
  8.00000000E-01  8.50000000E-01  8.50000000E-01  8.50000000E-01  8.00000000E-01
  8.50000000E-01  8.50000000E-01  8.50000000E-01  8.00000000E-01  8.50000000E-01
  8.50000000E-01  8.50000000E-01  8.00000000E-01  8.50000000E-01  8.50000000E-01
  8.50000000E-01  8.00000000E-01  8.50000000E-01  8.50000000E-01  8.50000000E-01
  8.00000000E-01  8.50000000E-01  8.50000000E-01  8.50000000E-01  8.00000000E-01
  8.50000000E-01  8.50000000E-01  8.50000000E-01  8.00000000E-01  8.50000000E-01
  8.50000000E-01  8.50000000E-01  8.00000000E-01  8.50000000E-01  8.50000000E-01
  8.50000000E-01  8.00000000E-01  8.50000000E-01  8.50000000E-01  8.50000000E-01
  8.00000000E-01  8.50000000E-01  8.50000000E-01  8.50000000E-01  8.00000000E-01
  8.50000000E-01  8.50000000E-01  8.50000000E-01  8.00000000E-01  8.50000000E-01
  8.50000000E-01  8.50000000E-01  8.00000000E-01  8.50000000E-01  8.50000000E-01
  8.50000000E-01  8.00000000E-01  8.50000000E-01  8.50000000E-01  8.50000000E-01
  8.00000000E-01  8.50000000E-01  8.50000000E-01  8.50000000E-01  8.00000000E-01
  8.50000000E-01  8.50000000E-01  8.50000000E-01  8.00000000E-01  8.50000000E-01
  8.50000000E-01  8.50000000E-01  8.00000000E-01  8.50000000E-01  8.50000000E-01
  8.50000000E-01  8.00000000E-01  8.50000000E-01  8.50000000E-01  8.50000000E-01
  8.00000000E-01  8.50000000E-01  8.50000000E-01  8.50000000E-01  8.00000000E-01
  8.50000000E-01  8.50000000E-01  8.50000000E-01  8.00000000E-01  8.50000000E-01
  8.50000000E-01  8.50000000E-01  8.00000000E-01  8.50000000E-01  8.50000000E-01
  8.50000000E-01  8.00000000E-01  8.50000000E-01  8.50000000E-01  8.50000000E-01
  8.00000000E-01  8.50000000E-01  8.50000000E-01  8.50000000E-01  8.00000000E-01
  8.50000000E-01  8.50000000E-01  8.50000000E-01  8.00000000E-01  8.50000000E-01
  8.50000000E-01  8.50000000E-01  8.00000000E-01  8.50000000E-01  8.50000000E-01
  8.50000000E-01  8.00000000E-01  8.50000000E-01  8.50000000E-01  8.50000000E-01
  8.00000000E-01  8.50000000E-01  8.50000000E-01  8.50000000E-01  8.00000000E-01
  8.50000000E-01  8.50000000E-01  8.50000000E-01  8.00000000E-01  8.50000000E-01
  8.50000000E-01  8.50000000E-01  8.00000000E-01  8.50000000E-01  8.50000000E-01
  8.50000000E-01  8.00000000E-01  8.50000000E-01  8.50000000E-01  8.50000000E-01
  8.00000000E-01  8.50000000E-01  8.50000000E-01  8.50000000E-01  8.00000000E-01
  8.50000000E-01  8.50000000E-01  8.50000000E-01  8.00000000E-01  8.50000000E-01
  8.50000000E-01  8.50000000E-01  8.00000000E-01  8.50000000E-01  8.50000000E-01
  8.50000000E-01  8.00000000E-01  8.50000000E-01  8.50000000E-01  8.50000000E-01
  8.00000000E-01  8.50000000E-01  8.50000000E-01  8.50000000E-01  8.00000000E-01
  8.50000000E-01  8.50000000E-01  8.50000000E-01  8.00000000E-01  8.50000000E-01
  8.50000000E-01  8.50000000E-01  8.00000000E-01  8.50000000E-01  8.50000000E-01
  8.50000000E-01  8.00000000E-01  8.50000000E-01  8.50000000E-01  8.50000000E-01
  8.00000000E-01  8.50000000E-01  8.50000000E-01  8.50000000E-01  8.00000000E-01
  8.50000000E-01  8.50000000E-01  8.50000000E-01  8.00000000E-01  8.50000000E-01
  8.50000000E-01  8.50000000E-01  8.00000000E-01  8.50000000E-01  8.50000000E-01
  8.50000000E-01  8.00000000E-01  8.50000000E-01  8.50000000E-01  8.50000000E-01
  8.00000000E-01  8.50000000E-01  8.50000000E-01  8.50000000E-01  8.00000000E-01
  8.50000000E-01  8.50000000E-01  8.50000000E-01  8.00000000E-01  8.50000000E-01
  8.50000000E-01  8.50000000E-01  8.00000000E-01  8.50000000E-01  8.50000000E-01
  8.50000000E-01  8.00000000E-01  8.50000000E-01  8.50000000E-01  8.50000000E-01
  8.00000000E-01  8.50000000E-01  8.50000000E-01  8.50000000E-01  8.00000000E-01
  8.50000000E-01  8.50000000E-01  8.50000000E-01  8.00000000E-01  8.50000000E-01
  8.50000000E-01  8.50000000E-01  8.00000000E-01  8.50000000E-01  8.50000000E-01
  8.50000000E-01  8.00000000E-01  8.50000000E-01  8.50000000E-01  8.50000000E-01
  8.00000000E-01  8.50000000E-01  8.50000000E-01  8.50000000E-01  8.00000000E-01
  8.50000000E-01  8.50000000E-01  8.50000000E-01  8.00000000E-01  8.50000000E-01
  8.50000000E-01  8.50000000E-01  8.00000000E-01  8.50000000E-01  8.50000000E-01
  8.50000000E-01  8.00000000E-01  8.50000000E-01  8.50000000E-01  8.50000000E-01
  8.00000000E-01  8.50000000E-01  8.50000000E-01  8.50000000E-01  8.00000000E-01
  8.50000000E-01  8.50000000E-01  8.50000000E-01  8.00000000E-01  8.50000000E-01
  8.50000000E-01  8.50000000E-01  8.00000000E-01  8.50000000E-01  8.50000000E-01
  8.50000000E-01  8.00000000E-01  8.50000000E-01  8.50000000E-01  8.50000000E-01
  8.00000000E-01  8.50000000E-01  8.50000000E-01  8.50000000E-01  8.00000000E-01
  8.50000000E-01  8.50000000E-01  8.50000000E-01  8.00000000E-01  8.50000000E-01
  8.50000000E-01  8.50000000E-01  8.00000000E-01  8.50000000E-01  8.50000000E-01
  8.50000000E-01  8.00000000E-01  8.50000000E-01  8.50000000E-01  8.50000000E-01
  8.00000000E-01  8.50000000E-01  8.50000000E-01  8.50000000E-01  8.00000000E-01
  8.50000000E-01  8.50000000E-01  8.50000000E-01  8.00000000E-01  8.50000000E-01
  8.50000000E-01  8.50000000E-01  8.00000000E-01  8.50000000E-01  8.50000000E-01
  8.50000000E-01  8.00000000E-01  8.50000000E-01  8.50000000E-01  8.50000000E-01
  8.00000000E-01  8.50000000E-01  8.50000000E-01  8.50000000E-01  8.00000000E-01
  8.50000000E-01  8.50000000E-01  8.50000000E-01  8.00000000E-01  8.50000000E-01
  8.50000000E-01  8.50000000E-01  8.00000000E-01  8.50000000E-01  8.50000000E-01
  8.50000000E-01  8.00000000E-01  8.50000000E-01  8.50000000E-01  8.50000000E-01
  8.00000000E-01  8.50000000E-01  8.50000000E-01  8.50000000E-01  8.00000000E-01
  8.50000000E-01  8.50000000E-01  8.50000000E-01  8.00000000E-01  8.50000000E-01
  8.50000000E-01  8.50000000E-01  8.00000000E-01  8.50000000E-01  8.50000000E-01
  8.50000000E-01  8.00000000E-01  8.50000000E-01  8.50000000E-01  8.50000000E-01
  8.00000000E-01  8.50000000E-01  8.50000000E-01  8.50000000E-01  8.00000000E-01
  8.50000000E-01  8.50000000E-01  8.50000000E-01  8.00000000E-01  8.50000000E-01
  8.50000000E-01  8.50000000E-01  8.00000000E-01  8.50000000E-01  8.50000000E-01
  8.50000000E-01  8.00000000E-01  8.50000000E-01  8.50000000E-01  8.50000000E-01
  8.00000000E-01  8.50000000E-01  8.50000000E-01  8.50000000E-01  8.00000000E-01
  8.50000000E-01  8.50000000E-01  8.50000000E-01  8.00000000E-01  8.50000000E-01
  8.50000000E-01  8.50000000E-01  8.00000000E-01  8.50000000E-01  8.50000000E-01
  8.50000000E-01  8.00000000E-01  8.50000000E-01  8.50000000E-01  8.50000000E-01
  8.00000000E-01  8.50000000E-01  8.50000000E-01  8.50000000E-01  8.00000000E-01
  8.50000000E-01  8.50000000E-01  8.50000000E-01  8.00000000E-01  8.50000000E-01
  8.50000000E-01  8.50000000E-01  8.00000000E-01  8.50000000E-01  8.50000000E-01
  8.50000000E-01  8.00000000E-01  8.50000000E-01  8.50000000E-01  8.50000000E-01
  8.00000000E-01  8.50000000E-01  8.50000000E-01  8.50000000E-01  8.00000000E-01
  8.50000000E-01  8.50000000E-01  8.50000000E-01  8.00000000E-01  8.50000000E-01
  8.50000000E-01  8.50000000E-01  8.00000000E-01  8.50000000E-01  8.50000000E-01
  8.50000000E-01  8.00000000E-01  8.50000000E-01  8.50000000E-01  8.50000000E-01
  8.00000000E-01  8.50000000E-01  8.50000000E-01  8.50000000E-01  8.00000000E-01
  8.50000000E-01  8.50000000E-01  8.50000000E-01  8.00000000E-01  8.50000000E-01
  8.50000000E-01  8.50000000E-01  8.00000000E-01  8.50000000E-01  8.50000000E-01
  8.50000000E-01  8.00000000E-01  8.50000000E-01  8.50000000E-01  8.50000000E-01
  8.00000000E-01  8.50000000E-01  8.50000000E-01  8.50000000E-01  8.00000000E-01
  8.50000000E-01  8.50000000E-01  8.50000000E-01  8.00000000E-01  8.50000000E-01
  8.50000000E-01  8.50000000E-01  8.00000000E-01  8.50000000E-01  8.50000000E-01
  8.50000000E-01  8.00000000E-01  8.50000000E-01  8.50000000E-01  8.50000000E-01
  8.00000000E-01  8.50000000E-01  8.50000000E-01  8.50000000E-01  8.00000000E-01
  8.50000000E-01  8.50000000E-01  8.50000000E-01  8.00000000E-01  8.50000000E-01
  8.50000000E-01  8.50000000E-01  8.00000000E-01  8.50000000E-01  8.50000000E-01
  8.50000000E-01  8.00000000E-01  8.50000000E-01  8.50000000E-01  8.50000000E-01
  8.00000000E-01  8.50000000E-01  8.50000000E-01  8.50000000E-01  8.00000000E-01
  8.50000000E-01  8.50000000E-01  8.50000000E-01  8.00000000E-01  8.50000000E-01
  8.50000000E-01  8.50000000E-01  8.00000000E-01  8.50000000E-01  8.50000000E-01
  8.50000000E-01  8.00000000E-01  8.50000000E-01  8.50000000E-01  8.50000000E-01
  8.00000000E-01  8.50000000E-01  8.50000000E-01  8.50000000E-01  8.00000000E-01
  8.50000000E-01  8.50000000E-01  8.50000000E-01  8.00000000E-01  8.50000000E-01
  8.50000000E-01  8.50000000E-01  8.00000000E-01  8.50000000E-01  8.50000000E-01
  8.50000000E-01  8.00000000E-01  8.50000000E-01  8.50000000E-01  8.50000000E-01
  8.00000000E-01  8.50000000E-01  8.50000000E-01  8.50000000E-01  8.00000000E-01
  8.50000000E-01  8.50000000E-01  8.50000000E-01  8.00000000E-01  8.50000000E-01
  8.50000000E-01  8.50000000E-01  8.00000000E-01  8.50000000E-01  8.50000000E-01
  8.50000000E-01  8.00000000E-01  8.50000000E-01  8.50000000E-01  8.50000000E-01
  8.00000000E-01  8.50000000E-01  8.50000000E-01  8.50000000E-01  8.00000000E-01
  8.50000000E-01  8.50000000E-01  8.50000000E-01  8.00000000E-01  8.50000000E-01
  8.50000000E-01  8.50000000E-01  8.00000000E-01  8.50000000E-01  8.50000000E-01
  8.50000000E-01  8.00000000E-01  8.50000000E-01  8.50000000E-01  8.50000000E-01
  8.00000000E-01  8.50000000E-01  8.50000000E-01  8.50000000E-01  8.00000000E-01
  8.50000000E-01  8.50000000E-01  8.50000000E-01  8.00000000E-01  8.50000000E-01
  8.50000000E-01  8.50000000E-01  8.00000000E-01  8.50000000E-01  8.50000000E-01
  8.50000000E-01  8.00000000E-01  8.50000000E-01  8.50000000E-01  8.50000000E-01
  8.00000000E-01  8.50000000E-01  8.50000000E-01  8.50000000E-01  8.00000000E-01
  8.50000000E-01  8.50000000E-01  8.50000000E-01  8.00000000E-01  8.50000000E-01
  8.50000000E-01  8.50000000E-01  8.00000000E-01  8.50000000E-01  8.50000000E-01
  8.50000000E-01  8.00000000E-01  8.50000000E-01  8.50000000E-01  8.50000000E-01
  8.00000000E-01  8.50000000E-01  8.50000000E-01  8.50000000E-01  8.00000000E-01
  8.50000000E-01  8.50000000E-01  8.50000000E-01  8.00000000E-01  8.50000000E-01
  8.50000000E-01  8.50000000E-01  8.00000000E-01  8.50000000E-01  8.50000000E-01
  8.50000000E-01  8.00000000E-01  8.50000000E-01  8.50000000E-01  8.50000000E-01
  8.00000000E-01  8.50000000E-01  8.50000000E-01  8.50000000E-01  8.00000000E-01
  8.50000000E-01  8.50000000E-01  8.50000000E-01  8.00000000E-01  8.50000000E-01
  8.50000000E-01  8.50000000E-01  8.00000000E-01  8.50000000E-01  8.50000000E-01
  8.50000000E-01  8.00000000E-01  8.50000000E-01  8.50000000E-01  8.50000000E-01
  8.00000000E-01  8.50000000E-01  8.50000000E-01  8.50000000E-01  8.00000000E-01
  8.50000000E-01  8.50000000E-01  8.50000000E-01  8.00000000E-01  8.50000000E-01
  8.50000000E-01  8.50000000E-01  8.00000000E-01  8.50000000E-01  8.50000000E-01
  8.50000000E-01  8.00000000E-01  8.50000000E-01  8.50000000E-01  8.50000000E-01
  8.00000000E-01  8.50000000E-01  8.50000000E-01  8.50000000E-01  8.00000000E-01
  8.50000000E-01  8.50000000E-01  8.50000000E-01  8.00000000E-01  8.50000000E-01
  8.50000000E-01  8.50000000E-01  8.00000000E-01  8.50000000E-01  8.50000000E-01
  8.50000000E-01  8.00000000E-01  8.50000000E-01  8.50000000E-01  8.50000000E-01
  8.00000000E-01  8.50000000E-01  8.50000000E-01  8.50000000E-01  8.00000000E-01
  8.50000000E-01  8.50000000E-01  8.50000000E-01  8.00000000E-01  8.50000000E-01
  8.50000000E-01  8.50000000E-01  8.00000000E-01  8.50000000E-01  8.50000000E-01
  8.50000000E-01  8.00000000E-01  8.50000000E-01  8.50000000E-01  8.50000000E-01
  8.00000000E-01  8.50000000E-01  8.50000000E-01  8.50000000E-01  8.00000000E-01
  8.50000000E-01  8.50000000E-01  8.50000000E-01  8.00000000E-01  8.50000000E-01
  8.50000000E-01  8.50000000E-01  8.00000000E-01  8.50000000E-01  8.50000000E-01
  8.50000000E-01  8.00000000E-01  8.50000000E-01  8.50000000E-01  8.50000000E-01
  8.00000000E-01  8.50000000E-01  8.50000000E-01  8.50000000E-01  8.00000000E-01
  8.50000000E-01  8.50000000E-01  8.50000000E-01  8.00000000E-01  8.50000000E-01
  8.50000000E-01  8.50000000E-01  8.00000000E-01  8.50000000E-01  8.50000000E-01
  8.50000000E-01  8.00000000E-01  8.50000000E-01  8.50000000E-01  8.50000000E-01
  8.00000000E-01  8.50000000E-01  8.50000000E-01  8.50000000E-01  8.00000000E-01
  8.50000000E-01  8.50000000E-01  8.50000000E-01  8.00000000E-01  8.50000000E-01
  8.50000000E-01  8.50000000E-01  8.00000000E-01  8.50000000E-01  8.50000000E-01
  8.50000000E-01  8.00000000E-01  8.50000000E-01  8.50000000E-01  8.50000000E-01
  8.00000000E-01  8.50000000E-01  8.50000000E-01  8.50000000E-01  8.00000000E-01
  8.50000000E-01  8.50000000E-01  8.50000000E-01  8.00000000E-01  8.50000000E-01
  8.50000000E-01  8.50000000E-01  8.00000000E-01  8.50000000E-01  8.50000000E-01
  8.50000000E-01  8.00000000E-01  8.50000000E-01  8.50000000E-01  8.50000000E-01
  8.00000000E-01  8.50000000E-01  8.50000000E-01  8.50000000E-01  8.00000000E-01
  8.50000000E-01  8.50000000E-01  8.50000000E-01  8.00000000E-01  8.50000000E-01
  8.50000000E-01  8.50000000E-01  8.00000000E-01  8.50000000E-01  8.50000000E-01
  8.50000000E-01  8.00000000E-01  8.50000000E-01  8.50000000E-01  8.50000000E-01
  8.00000000E-01  8.50000000E-01  8.50000000E-01  8.50000000E-01  8.00000000E-01
  8.50000000E-01  8.50000000E-01  8.50000000E-01  8.00000000E-01  8.50000000E-01
  8.50000000E-01  8.50000000E-01  8.00000000E-01  8.50000000E-01  8.50000000E-01
  8.50000000E-01  8.00000000E-01  8.50000000E-01  8.50000000E-01  8.50000000E-01
  8.00000000E-01  8.50000000E-01  8.50000000E-01  8.50000000E-01  8.00000000E-01
  8.50000000E-01  8.50000000E-01  8.50000000E-01  8.00000000E-01  8.50000000E-01
  8.50000000E-01  8.50000000E-01  8.00000000E-01  8.50000000E-01  8.50000000E-01
  8.50000000E-01  8.00000000E-01  8.50000000E-01  8.50000000E-01  8.50000000E-01
  8.00000000E-01  8.50000000E-01  8.50000000E-01  8.50000000E-01  8.00000000E-01
  8.50000000E-01  8.50000000E-01  8.50000000E-01  8.00000000E-01  8.50000000E-01
  8.50000000E-01  8.50000000E-01  8.00000000E-01  8.50000000E-01  8.50000000E-01
  8.50000000E-01  8.00000000E-01  8.50000000E-01  8.50000000E-01  8.50000000E-01
  8.00000000E-01  8.50000000E-01  8.50000000E-01  8.50000000E-01  8.00000000E-01
  8.50000000E-01  8.50000000E-01  8.50000000E-01  8.00000000E-01  8.50000000E-01
  8.50000000E-01  8.50000000E-01  8.00000000E-01  8.50000000E-01  8.50000000E-01
  8.50000000E-01  8.00000000E-01  8.50000000E-01  8.50000000E-01  8.50000000E-01
  8.00000000E-01  8.50000000E-01  8.50000000E-01  8.50000000E-01  8.00000000E-01
  8.50000000E-01  8.50000000E-01  8.50000000E-01  8.00000000E-01  8.50000000E-01
  8.50000000E-01  8.50000000E-01  8.00000000E-01  8.50000000E-01  8.50000000E-01
  8.50000000E-01  8.00000000E-01  8.50000000E-01  8.50000000E-01  8.50000000E-01
  8.00000000E-01  8.50000000E-01  8.50000000E-01  8.50000000E-01  8.00000000E-01
  8.50000000E-01  8.50000000E-01  8.50000000E-01  8.00000000E-01  8.50000000E-01
  8.50000000E-01  8.50000000E-01  8.00000000E-01  8.50000000E-01  8.50000000E-01
  8.50000000E-01  8.00000000E-01  8.50000000E-01  8.50000000E-01  8.50000000E-01
  8.00000000E-01  8.50000000E-01  8.50000000E-01  8.50000000E-01  8.00000000E-01
  8.50000000E-01  8.50000000E-01  8.50000000E-01  8.00000000E-01  8.50000000E-01
  8.50000000E-01  8.50000000E-01  8.00000000E-01  8.50000000E-01  8.50000000E-01
  8.50000000E-01  8.00000000E-01  8.50000000E-01  8.50000000E-01  8.50000000E-01
  8.00000000E-01  8.50000000E-01  8.50000000E-01  8.50000000E-01  8.00000000E-01
  8.50000000E-01  8.50000000E-01  8.50000000E-01  8.00000000E-01  8.50000000E-01
  8.50000000E-01  8.50000000E-01  8.00000000E-01  8.50000000E-01  8.50000000E-01
  8.50000000E-01  8.00000000E-01  8.50000000E-01  8.50000000E-01  8.50000000E-01
  8.00000000E-01  8.50000000E-01  8.50000000E-01  8.50000000E-01  8.00000000E-01
  8.50000000E-01  8.50000000E-01  8.50000000E-01  8.00000000E-01  8.50000000E-01
  8.50000000E-01  8.50000000E-01  8.00000000E-01  8.50000000E-01  8.50000000E-01
  8.50000000E-01  8.00000000E-01  8.50000000E-01  8.50000000E-01  8.50000000E-01
  8.00000000E-01  8.50000000E-01  8.50000000E-01  8.50000000E-01  8.00000000E-01
  8.50000000E-01  8.50000000E-01  8.50000000E-01  8.00000000E-01  8.50000000E-01
  8.50000000E-01  8.50000000E-01  8.00000000E-01  8.50000000E-01  8.50000000E-01
  8.50000000E-01  8.00000000E-01  8.50000000E-01  8.50000000E-01  8.50000000E-01
  8.00000000E-01  8.50000000E-01  8.50000000E-01  8.50000000E-01  8.00000000E-01
  8.50000000E-01  8.50000000E-01  8.50000000E-01  8.00000000E-01  8.50000000E-01
  8.50000000E-01  8.50000000E-01  8.00000000E-01  8.50000000E-01  8.50000000E-01
  8.50000000E-01  8.00000000E-01  8.50000000E-01  8.50000000E-01  8.50000000E-01
  8.00000000E-01  8.50000000E-01  8.50000000E-01  8.50000000E-01  8.00000000E-01
  8.50000000E-01  8.50000000E-01  8.50000000E-01  8.00000000E-01  8.50000000E-01
  8.50000000E-01  8.50000000E-01  8.00000000E-01  8.50000000E-01  8.50000000E-01
  8.50000000E-01  8.00000000E-01  8.50000000E-01  8.50000000E-01  8.50000000E-01
  8.00000000E-01  8.50000000E-01  8.50000000E-01  8.50000000E-01  8.00000000E-01
  8.50000000E-01  8.50000000E-01  8.50000000E-01  8.00000000E-01  8.50000000E-01
  8.50000000E-01  8.50000000E-01  8.00000000E-01  8.50000000E-01  8.50000000E-01
  8.50000000E-01  8.00000000E-01  8.50000000E-01  8.50000000E-01  8.50000000E-01
  8.00000000E-01  8.50000000E-01  8.50000000E-01  8.50000000E-01  8.00000000E-01
  8.50000000E-01  8.50000000E-01  8.50000000E-01  8.00000000E-01  8.50000000E-01
  8.50000000E-01  8.50000000E-01  8.00000000E-01  8.50000000E-01  8.50000000E-01
  8.50000000E-01  8.00000000E-01  8.50000000E-01  8.50000000E-01  8.50000000E-01
  8.00000000E-01  8.50000000E-01  8.50000000E-01  8.50000000E-01  8.00000000E-01
  8.50000000E-01  8.50000000E-01  8.50000000E-01  8.00000000E-01  8.50000000E-01
  8.50000000E-01  8.50000000E-01  8.00000000E-01  8.50000000E-01  8.50000000E-01
  8.50000000E-01  8.00000000E-01  8.50000000E-01  8.50000000E-01  8.50000000E-01
  8.00000000E-01  8.50000000E-01  8.50000000E-01  8.50000000E-01  8.00000000E-01
  8.50000000E-01  8.50000000E-01  8.50000000E-01  8.00000000E-01  8.50000000E-01
  8.50000000E-01  8.50000000E-01  8.00000000E-01  8.50000000E-01  8.50000000E-01
  8.50000000E-01  8.00000000E-01  8.50000000E-01  8.50000000E-01  8.50000000E-01
  8.00000000E-01  8.50000000E-01  8.50000000E-01  8.50000000E-01  8.00000000E-01
  8.50000000E-01  8.50000000E-01  8.50000000E-01  8.00000000E-01  8.50000000E-01
  8.50000000E-01  8.50000000E-01  8.00000000E-01  8.50000000E-01  8.50000000E-01
  8.50000000E-01  8.00000000E-01  8.50000000E-01  8.50000000E-01  8.50000000E-01
  8.00000000E-01  8.50000000E-01  8.50000000E-01  8.50000000E-01  8.00000000E-01
  8.50000000E-01  8.50000000E-01  8.50000000E-01  8.00000000E-01  8.50000000E-01
  8.50000000E-01  8.50000000E-01  8.00000000E-01  8.50000000E-01  8.50000000E-01
  8.50000000E-01  8.00000000E-01  8.50000000E-01  8.50000000E-01  8.50000000E-01
  8.00000000E-01  8.50000000E-01  8.50000000E-01  8.50000000E-01  8.00000000E-01
  8.50000000E-01  8.50000000E-01  8.50000000E-01  8.00000000E-01  8.50000000E-01
  8.50000000E-01  8.50000000E-01  8.00000000E-01  8.50000000E-01  8.50000000E-01
  8.50000000E-01  8.00000000E-01  8.50000000E-01  8.50000000E-01  8.50000000E-01
  8.00000000E-01  8.50000000E-01  8.50000000E-01  8.50000000E-01  8.00000000E-01
  8.50000000E-01  8.50000000E-01  8.50000000E-01  8.00000000E-01  8.50000000E-01
  8.50000000E-01  8.50000000E-01  8.00000000E-01  8.50000000E-01  8.50000000E-01
  8.50000000E-01  8.00000000E-01  8.50000000E-01  8.50000000E-01  8.50000000E-01
  8.00000000E-01  8.50000000E-01  8.50000000E-01  8.50000000E-01  8.00000000E-01
  8.50000000E-01  8.50000000E-01  8.50000000E-01  8.00000000E-01  8.50000000E-01
  8.50000000E-01  8.50000000E-01  8.00000000E-01  8.50000000E-01  8.50000000E-01
  8.50000000E-01  8.00000000E-01  8.50000000E-01  8.50000000E-01  8.50000000E-01
  8.00000000E-01  8.50000000E-01  8.50000000E-01  8.50000000E-01  8.00000000E-01
  8.50000000E-01  8.50000000E-01  8.50000000E-01  8.00000000E-01  8.50000000E-01
  8.50000000E-01  8.50000000E-01  8.00000000E-01  8.50000000E-01  8.50000000E-01
  8.50000000E-01  8.00000000E-01  8.50000000E-01  8.50000000E-01  8.50000000E-01
  8.00000000E-01  8.50000000E-01  8.50000000E-01  8.50000000E-01  8.00000000E-01
  8.50000000E-01  8.50000000E-01  8.50000000E-01  8.00000000E-01  8.50000000E-01
  8.50000000E-01  8.50000000E-01  8.00000000E-01  8.50000000E-01  8.50000000E-01
  8.50000000E-01  8.00000000E-01  8.50000000E-01  8.50000000E-01  8.50000000E-01
  8.00000000E-01  8.50000000E-01  8.50000000E-01  8.50000000E-01  8.00000000E-01
  8.50000000E-01  8.50000000E-01  8.50000000E-01  8.00000000E-01  8.50000000E-01
  8.50000000E-01  8.50000000E-01  8.00000000E-01  8.50000000E-01  8.50000000E-01
  8.50000000E-01  8.00000000E-01  8.50000000E-01  8.50000000E-01  8.50000000E-01
  8.00000000E-01  8.50000000E-01  8.50000000E-01  8.50000000E-01  8.00000000E-01
  8.50000000E-01  8.50000000E-01  8.50000000E-01  8.00000000E-01  8.50000000E-01
  8.50000000E-01  8.50000000E-01  8.00000000E-01  8.50000000E-01  8.50000000E-01
  8.50000000E-01  8.00000000E-01  8.50000000E-01  8.50000000E-01  8.50000000E-01
  8.00000000E-01  8.50000000E-01  8.50000000E-01  8.50000000E-01  8.00000000E-01
  8.50000000E-01  8.50000000E-01  8.50000000E-01  8.00000000E-01  8.50000000E-01
  8.50000000E-01  8.50000000E-01  8.00000000E-01  8.50000000E-01  8.50000000E-01
  8.50000000E-01  8.00000000E-01  8.50000000E-01  8.50000000E-01  8.50000000E-01
  8.00000000E-01  8.50000000E-01  8.50000000E-01  8.50000000E-01  8.00000000E-01
  8.50000000E-01  8.50000000E-01  8.50000000E-01  8.00000000E-01  8.50000000E-01
  8.50000000E-01  8.50000000E-01  8.00000000E-01  8.50000000E-01  8.50000000E-01
  8.50000000E-01  8.00000000E-01  8.50000000E-01  8.50000000E-01  8.50000000E-01
  8.00000000E-01  8.50000000E-01  8.50000000E-01  8.50000000E-01  8.00000000E-01
  8.50000000E-01  8.50000000E-01  8.50000000E-01  8.00000000E-01  8.50000000E-01
  8.50000000E-01  8.50000000E-01  8.00000000E-01  8.50000000E-01  8.50000000E-01
  8.50000000E-01  8.00000000E-01  8.50000000E-01  8.50000000E-01  8.50000000E-01
  8.00000000E-01  8.50000000E-01  8.50000000E-01  8.50000000E-01  8.00000000E-01
  8.50000000E-01  8.50000000E-01  8.50000000E-01  8.00000000E-01  8.50000000E-01
  8.50000000E-01  8.50000000E-01  8.00000000E-01  8.50000000E-01  8.50000000E-01
  8.50000000E-01  8.00000000E-01  8.50000000E-01  8.50000000E-01  8.50000000E-01
  8.00000000E-01  8.50000000E-01  8.50000000E-01  8.50000000E-01  8.00000000E-01
  8.50000000E-01  8.50000000E-01  8.50000000E-01  8.00000000E-01  8.50000000E-01
  8.50000000E-01  8.50000000E-01  8.00000000E-01  8.50000000E-01  8.50000000E-01
  8.50000000E-01  8.00000000E-01  8.50000000E-01  8.50000000E-01  8.50000000E-01
  8.00000000E-01  8.50000000E-01  8.50000000E-01  8.50000000E-01  8.00000000E-01
  8.50000000E-01  8.50000000E-01  8.50000000E-01  8.00000000E-01  8.50000000E-01
  8.50000000E-01  8.50000000E-01  8.00000000E-01  8.50000000E-01  8.50000000E-01
  8.50000000E-01  8.00000000E-01  8.50000000E-01  8.50000000E-01  8.50000000E-01
  8.00000000E-01  8.50000000E-01  8.50000000E-01  8.50000000E-01  8.00000000E-01
  8.50000000E-01  8.50000000E-01  8.50000000E-01  8.00000000E-01  8.50000000E-01
  8.50000000E-01  8.50000000E-01  8.00000000E-01  8.50000000E-01  8.50000000E-01
  8.50000000E-01  8.00000000E-01  8.50000000E-01  8.50000000E-01  8.50000000E-01
  8.00000000E-01  8.50000000E-01  8.50000000E-01  8.50000000E-01  8.00000000E-01
  8.50000000E-01  8.50000000E-01  8.50000000E-01  8.00000000E-01  8.50000000E-01
  8.50000000E-01  8.50000000E-01  8.00000000E-01  8.50000000E-01  8.50000000E-01
  8.50000000E-01  8.00000000E-01  8.50000000E-01  8.50000000E-01  8.50000000E-01
  8.00000000E-01  8.50000000E-01  8.50000000E-01  8.50000000E-01  8.00000000E-01
  8.50000000E-01  8.50000000E-01  8.50000000E-01  8.00000000E-01  8.50000000E-01
  8.50000000E-01  8.50000000E-01  8.00000000E-01  8.50000000E-01  8.50000000E-01
  8.50000000E-01  8.00000000E-01  8.50000000E-01  8.50000000E-01  8.50000000E-01
  8.00000000E-01  8.50000000E-01  8.50000000E-01  8.50000000E-01  8.00000000E-01
  8.50000000E-01  8.50000000E-01  8.50000000E-01  8.00000000E-01  8.50000000E-01
  8.50000000E-01  8.50000000E-01  8.00000000E-01  8.50000000E-01  8.50000000E-01
  8.50000000E-01  8.00000000E-01  8.50000000E-01  8.50000000E-01  8.50000000E-01
  8.00000000E-01  8.50000000E-01  8.50000000E-01  8.50000000E-01  8.00000000E-01
  8.50000000E-01  8.50000000E-01  8.50000000E-01  8.00000000E-01  8.50000000E-01
  8.50000000E-01  8.50000000E-01  8.00000000E-01  8.50000000E-01  8.50000000E-01
  8.50000000E-01  8.00000000E-01  8.50000000E-01  8.50000000E-01  8.50000000E-01
  8.00000000E-01  8.50000000E-01  8.50000000E-01  8.50000000E-01  8.00000000E-01
  8.50000000E-01  8.50000000E-01  8.50000000E-01  8.00000000E-01  8.50000000E-01
  8.50000000E-01  8.50000000E-01  8.00000000E-01  8.50000000E-01  8.50000000E-01
  8.50000000E-01  8.00000000E-01  8.50000000E-01  8.50000000E-01  8.50000000E-01
  8.00000000E-01  8.50000000E-01  8.50000000E-01  8.50000000E-01  8.00000000E-01
  8.50000000E-01  8.50000000E-01  8.50000000E-01  8.00000000E-01  8.50000000E-01
  8.50000000E-01  8.50000000E-01  8.00000000E-01  8.50000000E-01  8.50000000E-01
  8.50000000E-01  8.00000000E-01  8.50000000E-01  8.50000000E-01  8.50000000E-01
  8.00000000E-01  8.50000000E-01  8.50000000E-01  8.50000000E-01  8.00000000E-01
  8.50000000E-01  8.50000000E-01  8.50000000E-01  8.00000000E-01  8.50000000E-01
  8.50000000E-01  8.50000000E-01  8.00000000E-01  8.50000000E-01  8.50000000E-01
  8.50000000E-01  8.00000000E-01  8.50000000E-01  8.50000000E-01  8.50000000E-01
  8.00000000E-01  8.50000000E-01  8.50000000E-01  8.50000000E-01  8.00000000E-01
  8.50000000E-01  8.50000000E-01  8.50000000E-01  8.00000000E-01  8.50000000E-01
  8.50000000E-01  8.50000000E-01  8.00000000E-01  8.50000000E-01  8.50000000E-01
  8.50000000E-01  8.00000000E-01  8.50000000E-01  8.50000000E-01  8.50000000E-01
  8.00000000E-01  8.50000000E-01  8.50000000E-01  8.50000000E-01  8.00000000E-01
  8.50000000E-01  8.50000000E-01  8.50000000E-01  8.00000000E-01  8.50000000E-01
  8.50000000E-01  8.50000000E-01  8.00000000E-01  8.50000000E-01  8.50000000E-01
  8.50000000E-01  8.00000000E-01  8.50000000E-01  8.50000000E-01  8.50000000E-01
  8.00000000E-01  8.50000000E-01  8.50000000E-01  8.50000000E-01  8.00000000E-01
  8.50000000E-01  8.50000000E-01  8.50000000E-01  8.00000000E-01  8.50000000E-01
  8.50000000E-01  8.50000000E-01  8.00000000E-01  8.50000000E-01  8.50000000E-01
  8.50000000E-01  8.00000000E-01  8.50000000E-01  8.50000000E-01  8.50000000E-01
  8.00000000E-01  8.50000000E-01  8.50000000E-01  8.50000000E-01  8.00000000E-01
  8.50000000E-01  8.50000000E-01  8.50000000E-01  8.00000000E-01  8.50000000E-01
  8.50000000E-01  8.50000000E-01  8.00000000E-01  8.50000000E-01  8.50000000E-01
  8.50000000E-01  8.00000000E-01  8.50000000E-01  8.50000000E-01  8.50000000E-01
  8.00000000E-01  8.50000000E-01  8.50000000E-01  8.50000000E-01  8.00000000E-01
  8.50000000E-01  8.50000000E-01  8.50000000E-01  8.00000000E-01  8.50000000E-01
  8.50000000E-01  8.50000000E-01  8.00000000E-01  8.50000000E-01  8.50000000E-01
  8.50000000E-01  8.00000000E-01  8.50000000E-01  8.50000000E-01  8.50000000E-01
  8.00000000E-01  8.50000000E-01  8.50000000E-01  8.50000000E-01  8.00000000E-01
  8.50000000E-01  8.50000000E-01  8.50000000E-01  8.00000000E-01  8.50000000E-01
  8.50000000E-01  8.50000000E-01  8.00000000E-01  8.50000000E-01  8.50000000E-01
  8.50000000E-01  8.00000000E-01  8.50000000E-01  8.50000000E-01  8.50000000E-01
  8.00000000E-01  8.50000000E-01  8.50000000E-01  8.50000000E-01  8.00000000E-01
  8.50000000E-01  8.50000000E-01  8.50000000E-01  8.00000000E-01  8.50000000E-01
  8.50000000E-01  8.50000000E-01  8.00000000E-01  8.50000000E-01  8.50000000E-01
  8.50000000E-01  8.00000000E-01  8.50000000E-01  8.50000000E-01  8.50000000E-01
  8.00000000E-01  8.50000000E-01  8.50000000E-01  8.50000000E-01  8.00000000E-01
  8.50000000E-01  8.50000000E-01  8.50000000E-01  8.00000000E-01  8.50000000E-01
  8.50000000E-01  8.50000000E-01  8.00000000E-01  8.50000000E-01  8.50000000E-01
  8.50000000E-01  8.00000000E-01  8.50000000E-01  8.50000000E-01  8.50000000E-01
  8.00000000E-01  8.50000000E-01  8.50000000E-01  8.50000000E-01  8.00000000E-01
  8.50000000E-01  8.50000000E-01  8.50000000E-01  8.00000000E-01  8.50000000E-01
  8.50000000E-01  8.50000000E-01  8.00000000E-01  8.50000000E-01  8.50000000E-01
  8.50000000E-01  8.00000000E-01  8.50000000E-01  8.50000000E-01  8.50000000E-01
  8.00000000E-01  8.50000000E-01  8.50000000E-01  8.50000000E-01  8.00000000E-01
  8.50000000E-01  8.50000000E-01  8.50000000E-01  8.00000000E-01  8.50000000E-01
  8.50000000E-01  8.50000000E-01  8.00000000E-01  8.50000000E-01  8.50000000E-01
  8.50000000E-01  8.00000000E-01  8.50000000E-01  8.50000000E-01  8.50000000E-01
  8.00000000E-01  8.50000000E-01  8.50000000E-01  8.50000000E-01  8.00000000E-01
  8.50000000E-01  8.50000000E-01  8.50000000E-01  8.00000000E-01  8.50000000E-01
  8.50000000E-01  8.50000000E-01  8.00000000E-01  8.50000000E-01  8.50000000E-01
  8.50000000E-01  8.00000000E-01  8.50000000E-01  8.50000000E-01  8.50000000E-01
  8.00000000E-01  8.50000000E-01  8.50000000E-01  8.50000000E-01  8.00000000E-01
  8.50000000E-01  8.50000000E-01  8.50000000E-01  8.00000000E-01  8.50000000E-01
  8.50000000E-01  8.50000000E-01  8.00000000E-01  8.50000000E-01  8.50000000E-01
  8.50000000E-01  8.00000000E-01  8.50000000E-01  8.50000000E-01  8.50000000E-01
  8.00000000E-01  8.50000000E-01  8.50000000E-01  8.50000000E-01  8.00000000E-01
  8.50000000E-01  8.50000000E-01  8.50000000E-01  8.00000000E-01  8.50000000E-01
  8.50000000E-01  8.50000000E-01  8.00000000E-01  8.50000000E-01  8.50000000E-01
  8.50000000E-01  8.00000000E-01  8.50000000E-01  8.50000000E-01  8.50000000E-01
  8.00000000E-01  8.50000000E-01  8.50000000E-01  8.50000000E-01  8.00000000E-01
  8.50000000E-01  8.50000000E-01  8.50000000E-01  8.00000000E-01  8.50000000E-01
  8.50000000E-01  8.50000000E-01  8.00000000E-01  8.50000000E-01  8.50000000E-01
  8.50000000E-01  8.00000000E-01  8.50000000E-01  8.50000000E-01  8.50000000E-01
  8.00000000E-01  8.50000000E-01  8.50000000E-01  8.50000000E-01  8.00000000E-01
  8.50000000E-01  8.50000000E-01  8.50000000E-01  8.00000000E-01  8.50000000E-01
  8.50000000E-01  8.50000000E-01  8.00000000E-01  8.50000000E-01  8.50000000E-01
  8.50000000E-01  8.00000000E-01  8.50000000E-01  8.50000000E-01  8.50000000E-01
  8.00000000E-01  8.50000000E-01  8.50000000E-01  8.50000000E-01  8.00000000E-01
  8.50000000E-01  8.50000000E-01  8.50000000E-01  8.00000000E-01  8.50000000E-01
  8.50000000E-01  8.50000000E-01  8.00000000E-01  8.50000000E-01  8.50000000E-01
  8.50000000E-01  8.00000000E-01  8.50000000E-01  8.50000000E-01  8.50000000E-01
  8.00000000E-01  8.50000000E-01  8.50000000E-01  8.50000000E-01  8.00000000E-01
  8.50000000E-01  8.50000000E-01  8.50000000E-01  8.00000000E-01  8.50000000E-01
  8.50000000E-01  8.50000000E-01  8.00000000E-01  8.50000000E-01  8.50000000E-01
  8.50000000E-01  8.00000000E-01  8.50000000E-01  8.50000000E-01  8.50000000E-01
  8.00000000E-01  8.50000000E-01  8.50000000E-01  8.50000000E-01  8.00000000E-01
  8.50000000E-01  8.50000000E-01  8.50000000E-01  8.00000000E-01  8.50000000E-01
  8.50000000E-01  8.50000000E-01  8.00000000E-01  8.50000000E-01  8.50000000E-01
  8.50000000E-01  8.00000000E-01  8.50000000E-01  8.50000000E-01  8.50000000E-01
  8.00000000E-01  8.50000000E-01  8.50000000E-01  8.50000000E-01  8.00000000E-01
  8.50000000E-01  8.50000000E-01  8.50000000E-01  8.00000000E-01  8.50000000E-01
  8.50000000E-01  8.50000000E-01  8.00000000E-01  8.50000000E-01  8.50000000E-01
  8.50000000E-01  8.00000000E-01  8.50000000E-01  8.50000000E-01  8.50000000E-01
  8.00000000E-01  8.50000000E-01  8.50000000E-01  8.50000000E-01  8.00000000E-01
  8.50000000E-01  8.50000000E-01  8.50000000E-01  8.00000000E-01  8.50000000E-01
  8.50000000E-01  8.50000000E-01  8.00000000E-01  8.50000000E-01  8.50000000E-01
  8.50000000E-01  8.00000000E-01  8.50000000E-01  8.50000000E-01  8.50000000E-01
  8.00000000E-01  8.50000000E-01  8.50000000E-01  8.50000000E-01  8.00000000E-01
  8.50000000E-01  8.50000000E-01  8.50000000E-01  8.00000000E-01  8.50000000E-01
  8.50000000E-01  8.50000000E-01  8.00000000E-01  8.50000000E-01  8.50000000E-01
  8.50000000E-01  8.00000000E-01  8.50000000E-01  8.50000000E-01  8.50000000E-01
  8.00000000E-01  8.50000000E-01  8.50000000E-01  8.50000000E-01  8.00000000E-01
  8.50000000E-01  8.50000000E-01  8.50000000E-01  8.00000000E-01  8.50000000E-01
  8.50000000E-01  8.50000000E-01  8.00000000E-01  8.50000000E-01  8.50000000E-01
  8.50000000E-01  8.00000000E-01  8.50000000E-01  8.50000000E-01  8.50000000E-01
  8.00000000E-01  8.50000000E-01  8.50000000E-01  8.50000000E-01  8.00000000E-01
  8.50000000E-01  8.50000000E-01  8.50000000E-01  8.00000000E-01  8.50000000E-01
  8.50000000E-01  8.50000000E-01  8.00000000E-01  8.50000000E-01  8.50000000E-01
  8.50000000E-01  8.00000000E-01  8.50000000E-01  8.50000000E-01  8.50000000E-01
  8.00000000E-01  8.50000000E-01  8.50000000E-01  8.50000000E-01  8.00000000E-01
  8.50000000E-01  8.50000000E-01  8.50000000E-01  8.00000000E-01  8.50000000E-01
  8.50000000E-01  8.50000000E-01  8.00000000E-01  8.50000000E-01  8.50000000E-01
  8.50000000E-01  8.00000000E-01  8.50000000E-01  8.50000000E-01  8.50000000E-01
  8.00000000E-01  8.50000000E-01  8.50000000E-01  8.50000000E-01  8.00000000E-01
  8.50000000E-01  8.50000000E-01  8.50000000E-01  8.00000000E-01  8.50000000E-01
  8.50000000E-01  8.50000000E-01  8.00000000E-01  8.50000000E-01  8.50000000E-01
  8.50000000E-01  8.00000000E-01  8.50000000E-01  8.50000000E-01  8.50000000E-01
  8.00000000E-01  8.50000000E-01  8.50000000E-01  8.50000000E-01  8.00000000E-01
  8.50000000E-01  8.50000000E-01  8.50000000E-01  8.00000000E-01  8.50000000E-01
  8.50000000E-01  8.50000000E-01  8.00000000E-01  8.50000000E-01  8.50000000E-01
  8.50000000E-01  8.00000000E-01  8.50000000E-01  8.50000000E-01  8.50000000E-01
  8.00000000E-01  8.50000000E-01  8.50000000E-01  8.50000000E-01  8.00000000E-01
  8.50000000E-01  8.50000000E-01  8.50000000E-01  8.00000000E-01  8.50000000E-01
  8.50000000E-01  8.50000000E-01  8.00000000E-01  8.50000000E-01  8.50000000E-01
  8.50000000E-01  8.00000000E-01  8.50000000E-01  8.50000000E-01  8.50000000E-01
  8.00000000E-01  8.50000000E-01  8.50000000E-01  8.50000000E-01  8.00000000E-01
  8.50000000E-01  8.50000000E-01  8.50000000E-01  8.00000000E-01  8.50000000E-01
  8.50000000E-01  8.50000000E-01  8.00000000E-01  8.50000000E-01  8.50000000E-01
  8.50000000E-01  8.00000000E-01  8.50000000E-01  8.50000000E-01  8.50000000E-01
  8.00000000E-01  8.50000000E-01  8.50000000E-01  8.50000000E-01  8.00000000E-01
  8.50000000E-01  8.50000000E-01  8.50000000E-01  8.00000000E-01  8.50000000E-01
  8.50000000E-01  8.50000000E-01  8.00000000E-01  8.50000000E-01  8.50000000E-01
  8.50000000E-01  8.00000000E-01  8.50000000E-01  8.50000000E-01  8.50000000E-01
  8.00000000E-01  8.50000000E-01  8.50000000E-01  8.50000000E-01  8.00000000E-01
  8.50000000E-01  8.50000000E-01  8.50000000E-01  8.00000000E-01  8.50000000E-01
  8.50000000E-01  8.50000000E-01  8.00000000E-01  8.50000000E-01  8.50000000E-01
  8.50000000E-01  8.00000000E-01  8.50000000E-01  8.50000000E-01  8.50000000E-01
  8.00000000E-01  8.50000000E-01  8.50000000E-01  8.50000000E-01  8.00000000E-01
  8.50000000E-01  8.50000000E-01  8.50000000E-01  8.00000000E-01  8.50000000E-01
  8.50000000E-01  8.50000000E-01  8.00000000E-01  8.50000000E-01  8.50000000E-01
  8.50000000E-01  8.00000000E-01  8.50000000E-01  8.50000000E-01  8.50000000E-01
  8.00000000E-01  8.50000000E-01  8.50000000E-01  8.50000000E-01  8.00000000E-01
  8.50000000E-01  8.50000000E-01  8.50000000E-01  8.00000000E-01  8.50000000E-01
  8.50000000E-01  8.50000000E-01  8.00000000E-01  8.50000000E-01  8.50000000E-01
  8.50000000E-01  8.00000000E-01  8.50000000E-01  8.50000000E-01  8.50000000E-01
  8.00000000E-01  8.50000000E-01  8.50000000E-01  8.50000000E-01  8.00000000E-01
  8.50000000E-01  8.50000000E-01  8.50000000E-01  8.00000000E-01  8.50000000E-01
  8.50000000E-01  8.50000000E-01  8.00000000E-01  8.50000000E-01  8.50000000E-01
  8.50000000E-01  8.00000000E-01  8.50000000E-01  8.50000000E-01  8.50000000E-01
  8.00000000E-01  8.50000000E-01  8.50000000E-01  8.50000000E-01  8.00000000E-01
  8.50000000E-01  8.50000000E-01  8.50000000E-01  8.00000000E-01  8.50000000E-01
  8.50000000E-01  8.50000000E-01  8.00000000E-01  8.50000000E-01  8.50000000E-01
  8.50000000E-01  8.00000000E-01  8.50000000E-01  8.50000000E-01  8.50000000E-01
  8.00000000E-01  8.50000000E-01  8.50000000E-01  8.50000000E-01  8.00000000E-01
  8.50000000E-01  8.50000000E-01  8.50000000E-01  8.00000000E-01  8.50000000E-01
  8.50000000E-01  8.50000000E-01  8.00000000E-01  8.50000000E-01  8.50000000E-01
  8.50000000E-01  8.00000000E-01  8.50000000E-01  8.50000000E-01  8.50000000E-01
  8.00000000E-01  8.50000000E-01  8.50000000E-01  8.50000000E-01  8.00000000E-01
  8.50000000E-01  8.50000000E-01  8.50000000E-01  8.00000000E-01  8.50000000E-01
  8.50000000E-01  8.50000000E-01  8.00000000E-01  8.50000000E-01  8.50000000E-01
  8.50000000E-01  8.00000000E-01  8.50000000E-01  8.50000000E-01  8.50000000E-01
  8.00000000E-01  8.50000000E-01  8.50000000E-01  8.50000000E-01  8.00000000E-01
  8.50000000E-01  8.50000000E-01  8.50000000E-01  8.00000000E-01  8.50000000E-01
  8.50000000E-01  8.50000000E-01  8.00000000E-01  8.50000000E-01  8.50000000E-01
  8.50000000E-01  8.00000000E-01  8.50000000E-01  8.50000000E-01  8.50000000E-01
  8.00000000E-01  8.50000000E-01  8.50000000E-01  8.50000000E-01  8.00000000E-01
  8.50000000E-01  8.50000000E-01  8.50000000E-01  8.00000000E-01  8.50000000E-01
  8.50000000E-01  8.50000000E-01  8.00000000E-01  8.50000000E-01  8.50000000E-01
  8.50000000E-01  8.00000000E-01  8.50000000E-01  8.50000000E-01  8.50000000E-01
  8.00000000E-01  8.50000000E-01  8.50000000E-01  8.50000000E-01  8.00000000E-01
  8.50000000E-01  8.50000000E-01  8.50000000E-01  8.00000000E-01  8.50000000E-01
  8.50000000E-01  8.50000000E-01  8.00000000E-01  8.50000000E-01  8.50000000E-01
  8.50000000E-01  8.00000000E-01  8.50000000E-01  8.50000000E-01  8.50000000E-01
  8.00000000E-01  8.50000000E-01  8.50000000E-01  8.50000000E-01  8.00000000E-01
  8.50000000E-01  8.50000000E-01  8.50000000E-01  8.00000000E-01  8.50000000E-01
  8.50000000E-01  8.50000000E-01  8.00000000E-01  8.50000000E-01  8.50000000E-01
  8.50000000E-01  8.00000000E-01  8.50000000E-01  8.50000000E-01  8.50000000E-01
  8.00000000E-01  8.50000000E-01  8.50000000E-01  8.50000000E-01  8.00000000E-01
  8.50000000E-01  8.50000000E-01  8.50000000E-01  8.00000000E-01  8.50000000E-01
  8.50000000E-01  8.50000000E-01  8.00000000E-01  8.50000000E-01  8.50000000E-01
  8.50000000E-01  8.00000000E-01  8.50000000E-01  8.50000000E-01  8.50000000E-01
  8.00000000E-01  8.50000000E-01  8.50000000E-01  8.50000000E-01  8.00000000E-01
  8.50000000E-01  8.50000000E-01  8.50000000E-01  8.00000000E-01  8.50000000E-01
  8.50000000E-01  8.50000000E-01  8.00000000E-01  8.50000000E-01  8.50000000E-01
  8.50000000E-01  8.00000000E-01  8.50000000E-01  8.50000000E-01  8.50000000E-01
  8.00000000E-01  8.50000000E-01  8.50000000E-01  8.50000000E-01  8.00000000E-01
  8.50000000E-01  8.50000000E-01  8.50000000E-01  8.00000000E-01  8.50000000E-01
  8.50000000E-01  8.50000000E-01  8.00000000E-01  8.50000000E-01  8.50000000E-01
  8.50000000E-01  8.00000000E-01  8.50000000E-01  8.50000000E-01  8.50000000E-01
  8.00000000E-01  8.50000000E-01  8.50000000E-01  8.50000000E-01  8.00000000E-01
  8.50000000E-01  8.50000000E-01  8.50000000E-01  8.00000000E-01  8.50000000E-01
  8.50000000E-01  8.50000000E-01  8.00000000E-01  8.50000000E-01  8.50000000E-01
  8.50000000E-01  8.00000000E-01  8.50000000E-01  8.50000000E-01  8.50000000E-01
  8.00000000E-01  8.50000000E-01  8.50000000E-01  8.50000000E-01  8.00000000E-01
  8.50000000E-01  8.50000000E-01  8.50000000E-01  8.00000000E-01  8.50000000E-01
  8.50000000E-01  8.50000000E-01  8.00000000E-01  8.50000000E-01  8.50000000E-01
  8.50000000E-01  8.00000000E-01  8.50000000E-01  8.50000000E-01  8.50000000E-01
  8.00000000E-01  8.50000000E-01  8.50000000E-01  8.50000000E-01  8.00000000E-01
  8.50000000E-01  8.50000000E-01  8.50000000E-01  8.00000000E-01  8.50000000E-01
  8.50000000E-01  8.50000000E-01  8.00000000E-01  8.50000000E-01  8.50000000E-01
  8.50000000E-01  8.00000000E-01  8.50000000E-01  8.50000000E-01  8.50000000E-01
  8.00000000E-01  8.50000000E-01  8.50000000E-01  8.50000000E-01  8.00000000E-01
  8.50000000E-01  8.50000000E-01  8.50000000E-01  8.00000000E-01  8.50000000E-01
  8.50000000E-01  8.50000000E-01  8.00000000E-01  8.50000000E-01  8.50000000E-01
  8.50000000E-01  8.00000000E-01  8.50000000E-01  8.50000000E-01  8.50000000E-01
  8.00000000E-01  8.50000000E-01  8.50000000E-01  8.50000000E-01  8.00000000E-01
  8.50000000E-01  8.50000000E-01  8.50000000E-01  8.00000000E-01  8.50000000E-01
  8.50000000E-01  8.50000000E-01  8.00000000E-01  8.50000000E-01  8.50000000E-01
  8.50000000E-01  8.00000000E-01  8.50000000E-01  8.50000000E-01  8.50000000E-01
  8.00000000E-01  8.50000000E-01  8.50000000E-01  8.50000000E-01  8.00000000E-01
  8.50000000E-01  8.50000000E-01  8.50000000E-01  8.00000000E-01  8.50000000E-01
  8.50000000E-01  8.50000000E-01  8.00000000E-01  8.50000000E-01  8.50000000E-01
  8.50000000E-01  8.00000000E-01  8.50000000E-01  8.50000000E-01  8.50000000E-01
  8.00000000E-01  8.50000000E-01  8.50000000E-01  8.50000000E-01  8.00000000E-01
  8.50000000E-01  8.50000000E-01  8.50000000E-01  8.00000000E-01  8.50000000E-01
  8.50000000E-01  8.50000000E-01  8.00000000E-01  8.50000000E-01  8.50000000E-01
  8.50000000E-01  8.00000000E-01  8.50000000E-01  8.50000000E-01  8.50000000E-01
  8.00000000E-01  8.50000000E-01  8.50000000E-01  8.50000000E-01  8.00000000E-01
  8.50000000E-01  8.50000000E-01  8.50000000E-01  8.00000000E-01  8.50000000E-01
  8.50000000E-01  8.50000000E-01  8.00000000E-01  8.50000000E-01  8.50000000E-01
  8.50000000E-01  8.00000000E-01  8.50000000E-01  8.50000000E-01  8.50000000E-01
  8.00000000E-01  8.50000000E-01  8.50000000E-01  8.50000000E-01  8.00000000E-01
  8.50000000E-01  8.50000000E-01  8.50000000E-01  8.00000000E-01  8.50000000E-01
  8.50000000E-01  8.50000000E-01  8.00000000E-01  8.50000000E-01  8.50000000E-01
  8.50000000E-01  8.00000000E-01  8.50000000E-01  8.50000000E-01  8.50000000E-01
  8.00000000E-01  8.50000000E-01  8.50000000E-01  8.50000000E-01  8.00000000E-01
  8.50000000E-01  8.50000000E-01  8.50000000E-01  8.00000000E-01  8.50000000E-01
  8.50000000E-01  8.50000000E-01  8.00000000E-01  8.50000000E-01  8.50000000E-01
  8.50000000E-01  8.00000000E-01  8.50000000E-01  8.50000000E-01  8.50000000E-01
  8.00000000E-01  8.50000000E-01  8.50000000E-01  8.50000000E-01  8.00000000E-01
  8.50000000E-01  8.50000000E-01  8.50000000E-01  8.00000000E-01  8.50000000E-01
  8.50000000E-01  8.50000000E-01  8.00000000E-01  8.50000000E-01  8.50000000E-01
  8.50000000E-01  8.00000000E-01  8.50000000E-01  8.50000000E-01  8.50000000E-01
  8.00000000E-01  8.50000000E-01  8.50000000E-01  8.50000000E-01  8.00000000E-01
  8.50000000E-01  8.50000000E-01  8.50000000E-01  8.00000000E-01  8.50000000E-01
  8.50000000E-01  8.50000000E-01  8.00000000E-01  8.50000000E-01  8.50000000E-01
  8.50000000E-01  8.00000000E-01  8.50000000E-01  8.50000000E-01  8.50000000E-01
  8.00000000E-01  8.50000000E-01  8.50000000E-01  8.50000000E-01  8.00000000E-01
  8.50000000E-01  8.50000000E-01  8.50000000E-01  8.00000000E-01  8.50000000E-01
  8.50000000E-01  8.50000000E-01  8.00000000E-01  8.50000000E-01  8.50000000E-01
  8.50000000E-01  8.00000000E-01  8.50000000E-01  8.50000000E-01  8.50000000E-01
  8.00000000E-01  8.50000000E-01  8.50000000E-01  8.50000000E-01  8.00000000E-01
  8.50000000E-01  8.50000000E-01  8.50000000E-01  8.00000000E-01  8.50000000E-01
  8.50000000E-01  8.50000000E-01  8.00000000E-01  8.50000000E-01  8.50000000E-01
  8.50000000E-01  8.00000000E-01  8.50000000E-01  8.50000000E-01  8.50000000E-01
  8.00000000E-01  8.50000000E-01  8.50000000E-01  8.50000000E-01  8.00000000E-01
  8.50000000E-01  8.50000000E-01  8.50000000E-01  8.00000000E-01  8.50000000E-01
  8.50000000E-01  8.50000000E-01  8.00000000E-01  8.50000000E-01  8.50000000E-01
  8.50000000E-01  8.00000000E-01  8.50000000E-01  8.50000000E-01  8.50000000E-01
  8.00000000E-01  8.50000000E-01  8.50000000E-01  8.50000000E-01  8.00000000E-01
  8.50000000E-01  8.50000000E-01  8.50000000E-01  8.00000000E-01  8.50000000E-01
  8.50000000E-01  8.50000000E-01  8.00000000E-01  8.50000000E-01  8.50000000E-01
  8.50000000E-01  8.00000000E-01  8.50000000E-01  8.50000000E-01  8.50000000E-01
  8.00000000E-01  8.50000000E-01  8.50000000E-01  8.50000000E-01  8.00000000E-01
  8.50000000E-01  8.50000000E-01  8.50000000E-01  8.00000000E-01  8.50000000E-01
  8.50000000E-01  8.50000000E-01  8.00000000E-01  8.50000000E-01  8.50000000E-01
  8.50000000E-01  8.00000000E-01  8.50000000E-01  8.50000000E-01  8.50000000E-01
  8.00000000E-01  8.50000000E-01  8.50000000E-01  8.50000000E-01  8.00000000E-01
  8.50000000E-01  8.50000000E-01  8.50000000E-01  8.00000000E-01  8.50000000E-01
  8.50000000E-01  8.50000000E-01  8.00000000E-01  8.50000000E-01  8.50000000E-01
  8.50000000E-01  8.00000000E-01  8.50000000E-01  8.50000000E-01  8.50000000E-01
  8.00000000E-01  8.50000000E-01  8.50000000E-01  8.50000000E-01  8.00000000E-01
  8.50000000E-01  8.50000000E-01  8.50000000E-01  8.00000000E-01  8.50000000E-01
  8.50000000E-01  8.50000000E-01  8.00000000E-01  8.50000000E-01  8.50000000E-01
  8.50000000E-01  8.00000000E-01  8.50000000E-01  8.50000000E-01  8.50000000E-01
  8.00000000E-01  8.50000000E-01  8.50000000E-01  8.50000000E-01  8.00000000E-01
  8.50000000E-01  8.50000000E-01  8.50000000E-01  8.00000000E-01  8.50000000E-01
  8.50000000E-01  8.50000000E-01  8.00000000E-01  8.50000000E-01  8.50000000E-01
  8.50000000E-01  8.00000000E-01  8.50000000E-01  8.50000000E-01  8.50000000E-01
  8.00000000E-01  8.50000000E-01  8.50000000E-01  8.50000000E-01  8.00000000E-01
  8.50000000E-01  8.50000000E-01  8.50000000E-01  8.00000000E-01  8.50000000E-01
  8.50000000E-01  8.50000000E-01  8.00000000E-01  8.50000000E-01  8.50000000E-01
  8.50000000E-01  8.00000000E-01  8.50000000E-01  8.50000000E-01  8.50000000E-01
  8.00000000E-01  8.50000000E-01  8.50000000E-01  8.50000000E-01  8.00000000E-01
  8.50000000E-01  8.50000000E-01  8.50000000E-01  8.00000000E-01  8.50000000E-01
  8.50000000E-01  8.50000000E-01  8.00000000E-01  8.50000000E-01  8.50000000E-01
  8.50000000E-01  8.00000000E-01  8.50000000E-01  8.50000000E-01  8.50000000E-01
  8.00000000E-01  8.50000000E-01  8.50000000E-01  8.50000000E-01  8.00000000E-01
  8.50000000E-01  8.50000000E-01  8.50000000E-01  8.00000000E-01  8.50000000E-01
  8.50000000E-01  8.50000000E-01  8.00000000E-01  8.50000000E-01  8.50000000E-01
  8.50000000E-01  8.00000000E-01  8.50000000E-01  8.50000000E-01  8.50000000E-01
  8.00000000E-01  8.50000000E-01  8.50000000E-01  8.50000000E-01  8.00000000E-01
  8.50000000E-01  8.50000000E-01  8.50000000E-01  8.00000000E-01  8.50000000E-01
  8.50000000E-01  8.50000000E-01  8.00000000E-01  8.50000000E-01  8.50000000E-01
  8.50000000E-01  8.00000000E-01  8.50000000E-01  8.50000000E-01  8.50000000E-01
  8.00000000E-01  8.50000000E-01  8.50000000E-01  8.50000000E-01  8.00000000E-01
  8.50000000E-01  8.50000000E-01  8.50000000E-01  8.00000000E-01  8.50000000E-01
  8.50000000E-01  8.50000000E-01  8.00000000E-01  8.50000000E-01  8.50000000E-01
  8.50000000E-01  8.00000000E-01  8.50000000E-01  8.50000000E-01  8.50000000E-01
  8.00000000E-01  8.50000000E-01  8.50000000E-01  8.50000000E-01  8.00000000E-01
  8.50000000E-01  8.50000000E-01  8.50000000E-01  8.00000000E-01  8.50000000E-01
  8.50000000E-01  8.50000000E-01  8.00000000E-01  8.50000000E-01  8.50000000E-01
  8.50000000E-01  8.00000000E-01  8.50000000E-01  8.50000000E-01  8.50000000E-01
  8.00000000E-01  8.50000000E-01  8.50000000E-01  8.50000000E-01  8.00000000E-01
  8.50000000E-01  8.50000000E-01  8.50000000E-01  8.00000000E-01  8.50000000E-01
  8.50000000E-01  8.50000000E-01  8.00000000E-01  8.50000000E-01  8.50000000E-01
  8.50000000E-01  8.00000000E-01  8.50000000E-01  8.50000000E-01  8.50000000E-01
  8.00000000E-01  8.50000000E-01  8.50000000E-01  8.50000000E-01  8.00000000E-01
  8.50000000E-01  8.50000000E-01  8.50000000E-01  8.00000000E-01  8.50000000E-01
  8.50000000E-01  8.50000000E-01  8.00000000E-01  8.50000000E-01  8.50000000E-01
  8.50000000E-01  8.00000000E-01  8.50000000E-01  8.50000000E-01  8.50000000E-01
  8.00000000E-01  8.50000000E-01  8.50000000E-01  8.50000000E-01  8.00000000E-01
  8.50000000E-01  8.50000000E-01  8.50000000E-01  8.00000000E-01  8.50000000E-01
  8.50000000E-01  8.50000000E-01  8.00000000E-01  8.50000000E-01  8.50000000E-01
  8.50000000E-01  8.00000000E-01  8.50000000E-01  8.50000000E-01  8.50000000E-01
  8.00000000E-01  8.50000000E-01  8.50000000E-01  8.50000000E-01  8.00000000E-01
  8.50000000E-01  8.50000000E-01  8.50000000E-01  8.00000000E-01  8.50000000E-01
  8.50000000E-01  8.50000000E-01  8.00000000E-01  8.50000000E-01  8.50000000E-01
  8.50000000E-01  8.00000000E-01  8.50000000E-01  8.50000000E-01  8.50000000E-01
  8.00000000E-01  8.50000000E-01  8.50000000E-01  8.50000000E-01  8.00000000E-01
  8.50000000E-01  8.50000000E-01  8.50000000E-01  8.00000000E-01  8.50000000E-01
  8.50000000E-01  8.50000000E-01  8.00000000E-01  8.50000000E-01  8.50000000E-01
  8.50000000E-01  8.00000000E-01  8.50000000E-01  8.50000000E-01  8.50000000E-01
  8.00000000E-01  8.50000000E-01  8.50000000E-01  8.50000000E-01  8.00000000E-01
  8.50000000E-01  8.50000000E-01  8.50000000E-01  8.00000000E-01  8.50000000E-01
  8.50000000E-01  8.50000000E-01  8.00000000E-01  8.50000000E-01  8.50000000E-01
  8.50000000E-01  8.00000000E-01  8.50000000E-01  8.50000000E-01  8.50000000E-01
  8.00000000E-01  8.50000000E-01  8.50000000E-01  8.50000000E-01  8.00000000E-01
  8.50000000E-01  8.50000000E-01  8.50000000E-01  8.00000000E-01  8.50000000E-01
  8.50000000E-01  8.50000000E-01  8.00000000E-01  8.50000000E-01  8.50000000E-01
  8.50000000E-01  8.00000000E-01  8.50000000E-01  8.50000000E-01  8.50000000E-01
  8.00000000E-01  8.50000000E-01  8.50000000E-01  8.50000000E-01  8.00000000E-01
  8.50000000E-01  8.50000000E-01  8.50000000E-01  8.00000000E-01  8.50000000E-01
  8.50000000E-01  8.50000000E-01  8.00000000E-01  8.50000000E-01  8.50000000E-01
  8.50000000E-01  8.00000000E-01  8.50000000E-01  8.50000000E-01  8.50000000E-01
  8.00000000E-01  8.50000000E-01  8.50000000E-01  8.50000000E-01  8.00000000E-01
  8.50000000E-01  8.50000000E-01  8.50000000E-01  8.00000000E-01  8.50000000E-01
  8.50000000E-01  8.50000000E-01  8.00000000E-01  8.50000000E-01  8.50000000E-01
  8.50000000E-01  8.00000000E-01  8.50000000E-01  8.50000000E-01  8.50000000E-01
  8.00000000E-01  8.50000000E-01  8.50000000E-01  8.50000000E-01  8.00000000E-01
  8.50000000E-01  8.50000000E-01  8.50000000E-01  8.00000000E-01  8.50000000E-01
  8.50000000E-01  8.50000000E-01  8.00000000E-01  8.50000000E-01  8.50000000E-01
  8.50000000E-01  8.00000000E-01  8.50000000E-01  8.50000000E-01  8.50000000E-01
  8.00000000E-01  8.50000000E-01  8.50000000E-01  8.50000000E-01  8.00000000E-01
  8.50000000E-01  8.50000000E-01  8.50000000E-01  8.00000000E-01  8.50000000E-01
  8.50000000E-01  8.50000000E-01  8.00000000E-01  8.50000000E-01  8.50000000E-01
  8.50000000E-01  8.00000000E-01  8.50000000E-01  8.50000000E-01  8.50000000E-01
  8.00000000E-01  8.50000000E-01  8.50000000E-01  8.50000000E-01  8.00000000E-01
  8.50000000E-01  8.50000000E-01  8.50000000E-01  8.00000000E-01  8.50000000E-01
  8.50000000E-01  8.50000000E-01  8.00000000E-01  8.50000000E-01  8.50000000E-01
  8.50000000E-01  8.00000000E-01  8.50000000E-01  8.50000000E-01  8.50000000E-01
  8.00000000E-01  8.50000000E-01  8.50000000E-01  8.50000000E-01  8.00000000E-01
  8.50000000E-01  8.50000000E-01  8.50000000E-01  8.00000000E-01  8.50000000E-01
  8.50000000E-01  8.50000000E-01  8.00000000E-01  8.50000000E-01  8.50000000E-01
  8.50000000E-01  8.00000000E-01  8.50000000E-01  8.50000000E-01  8.50000000E-01
  8.00000000E-01  8.50000000E-01  8.50000000E-01  8.50000000E-01  8.00000000E-01
  8.50000000E-01  8.50000000E-01  8.50000000E-01  8.00000000E-01  8.50000000E-01
  8.50000000E-01  8.50000000E-01  8.00000000E-01  8.50000000E-01  8.50000000E-01
  8.50000000E-01  8.00000000E-01  8.50000000E-01  8.50000000E-01  8.50000000E-01
  8.00000000E-01  8.50000000E-01  8.50000000E-01  8.50000000E-01  8.00000000E-01
  8.50000000E-01  8.50000000E-01  8.50000000E-01  8.00000000E-01  8.50000000E-01
  8.50000000E-01  8.50000000E-01  8.00000000E-01  8.50000000E-01  8.50000000E-01
  8.50000000E-01  8.00000000E-01  8.50000000E-01  8.50000000E-01  8.50000000E-01
  8.00000000E-01  8.50000000E-01  8.50000000E-01  8.50000000E-01  8.00000000E-01
  8.50000000E-01  8.50000000E-01  8.50000000E-01  8.00000000E-01  8.50000000E-01
  8.50000000E-01  8.50000000E-01  8.00000000E-01  8.50000000E-01  8.50000000E-01
  8.50000000E-01  8.00000000E-01  8.50000000E-01  8.50000000E-01  8.50000000E-01
  8.00000000E-01  8.50000000E-01  8.50000000E-01  8.50000000E-01  8.00000000E-01
  8.50000000E-01  8.50000000E-01  8.50000000E-01  8.00000000E-01  8.50000000E-01
  8.50000000E-01  8.50000000E-01  8.00000000E-01  8.50000000E-01  8.50000000E-01
  8.50000000E-01  8.00000000E-01  8.50000000E-01  8.50000000E-01  8.50000000E-01
  8.00000000E-01  8.50000000E-01  8.50000000E-01  8.50000000E-01  8.00000000E-01
  8.50000000E-01  8.50000000E-01  8.50000000E-01  8.00000000E-01  8.50000000E-01
  8.50000000E-01  8.50000000E-01  8.00000000E-01  8.50000000E-01  8.50000000E-01
  8.50000000E-01  8.00000000E-01  8.50000000E-01  8.50000000E-01  8.50000000E-01
  8.00000000E-01  8.50000000E-01  8.50000000E-01  8.50000000E-01  8.00000000E-01
  8.50000000E-01  8.50000000E-01  8.50000000E-01  8.00000000E-01  8.50000000E-01
  8.50000000E-01  8.50000000E-01  8.00000000E-01  8.50000000E-01  8.50000000E-01
  8.50000000E-01  8.00000000E-01  8.50000000E-01  8.50000000E-01  8.50000000E-01
  8.00000000E-01  8.50000000E-01  8.50000000E-01  8.50000000E-01  8.00000000E-01
  8.50000000E-01  8.50000000E-01  8.50000000E-01  8.00000000E-01  8.50000000E-01
  8.50000000E-01  8.50000000E-01  8.00000000E-01  8.50000000E-01  8.50000000E-01
  8.50000000E-01  8.00000000E-01  8.50000000E-01  8.50000000E-01  8.50000000E-01
  8.00000000E-01  8.50000000E-01  8.50000000E-01  8.50000000E-01  8.00000000E-01
  8.50000000E-01  8.50000000E-01  8.50000000E-01  8.00000000E-01  8.50000000E-01
  8.50000000E-01  8.50000000E-01  8.00000000E-01  8.50000000E-01  8.50000000E-01
  8.50000000E-01  8.00000000E-01  8.50000000E-01  8.50000000E-01  8.50000000E-01
  8.00000000E-01  8.50000000E-01  8.50000000E-01  8.50000000E-01  8.00000000E-01
  8.50000000E-01  8.50000000E-01  8.50000000E-01  8.00000000E-01  8.50000000E-01
  8.50000000E-01  8.50000000E-01  8.00000000E-01  8.50000000E-01  8.50000000E-01
  8.50000000E-01  8.00000000E-01  8.50000000E-01  8.50000000E-01  8.50000000E-01
  8.00000000E-01  8.50000000E-01  8.50000000E-01  8.50000000E-01  8.00000000E-01
  8.50000000E-01  8.50000000E-01  8.50000000E-01  8.00000000E-01  8.50000000E-01
  8.50000000E-01  8.50000000E-01  8.00000000E-01  8.50000000E-01  8.50000000E-01
  8.50000000E-01  8.00000000E-01  8.50000000E-01  8.50000000E-01  8.50000000E-01
  8.00000000E-01  8.50000000E-01  8.50000000E-01  8.50000000E-01  8.00000000E-01
  8.50000000E-01  8.50000000E-01  8.50000000E-01  8.00000000E-01  8.50000000E-01
  8.50000000E-01  8.50000000E-01  8.00000000E-01  8.50000000E-01  8.50000000E-01
  8.50000000E-01  8.00000000E-01  8.50000000E-01  8.50000000E-01  8.50000000E-01
  8.00000000E-01  8.50000000E-01  8.50000000E-01  8.50000000E-01  8.00000000E-01
  8.50000000E-01  8.50000000E-01  8.50000000E-01  8.00000000E-01  8.50000000E-01
  8.50000000E-01  8.50000000E-01  8.00000000E-01  8.50000000E-01  8.50000000E-01
  8.50000000E-01  8.00000000E-01  8.50000000E-01  8.50000000E-01  8.50000000E-01
  8.00000000E-01  8.50000000E-01  8.50000000E-01  8.50000000E-01  8.00000000E-01
  8.50000000E-01  8.50000000E-01  8.50000000E-01  8.00000000E-01  8.50000000E-01
  8.50000000E-01  8.50000000E-01  8.00000000E-01  8.50000000E-01  8.50000000E-01
  8.50000000E-01  8.00000000E-01  8.50000000E-01  8.50000000E-01  8.50000000E-01
  8.00000000E-01  8.50000000E-01  8.50000000E-01  8.50000000E-01  8.00000000E-01
  8.50000000E-01  8.50000000E-01  8.50000000E-01  8.00000000E-01  8.50000000E-01
  8.50000000E-01  8.50000000E-01  8.00000000E-01  8.50000000E-01  8.50000000E-01
  8.50000000E-01  8.00000000E-01  8.50000000E-01  8.50000000E-01  8.50000000E-01
  8.00000000E-01  8.50000000E-01  8.50000000E-01  8.50000000E-01  8.00000000E-01
  8.50000000E-01  8.50000000E-01  8.50000000E-01  8.00000000E-01  8.50000000E-01
  8.50000000E-01  8.50000000E-01  8.00000000E-01  8.50000000E-01  8.50000000E-01
  8.50000000E-01  8.00000000E-01  8.50000000E-01  8.50000000E-01  8.50000000E-01
  8.00000000E-01  8.50000000E-01  8.50000000E-01  8.50000000E-01  8.00000000E-01
  8.50000000E-01  8.50000000E-01  8.50000000E-01  8.00000000E-01  8.50000000E-01
  8.50000000E-01  8.50000000E-01  8.00000000E-01  8.50000000E-01  8.50000000E-01
  8.50000000E-01  8.00000000E-01  8.50000000E-01  8.50000000E-01  8.50000000E-01
  8.00000000E-01  8.50000000E-01  8.50000000E-01  8.50000000E-01  8.00000000E-01
  8.50000000E-01  8.50000000E-01  8.50000000E-01  8.00000000E-01  8.50000000E-01
  8.50000000E-01  8.50000000E-01  8.00000000E-01  8.50000000E-01  8.50000000E-01
  8.50000000E-01  8.00000000E-01  8.50000000E-01  8.50000000E-01  8.50000000E-01
  8.00000000E-01  8.50000000E-01  8.50000000E-01  8.50000000E-01  8.00000000E-01
  8.50000000E-01  8.50000000E-01  8.50000000E-01  8.00000000E-01  8.50000000E-01
  8.50000000E-01  8.50000000E-01  8.00000000E-01  8.50000000E-01  8.50000000E-01
  8.50000000E-01  8.00000000E-01  8.50000000E-01  8.50000000E-01  8.50000000E-01
  8.00000000E-01  8.50000000E-01  8.50000000E-01  8.50000000E-01  8.00000000E-01
  8.50000000E-01  8.50000000E-01  8.50000000E-01  8.00000000E-01  8.50000000E-01
  8.50000000E-01  8.50000000E-01  8.00000000E-01  8.50000000E-01  8.50000000E-01
  8.50000000E-01  8.00000000E-01  8.50000000E-01  8.50000000E-01  8.50000000E-01
  8.00000000E-01  8.50000000E-01  8.50000000E-01  8.50000000E-01  8.00000000E-01
  8.50000000E-01  8.50000000E-01  8.50000000E-01  8.00000000E-01  8.50000000E-01
  8.50000000E-01  8.50000000E-01  8.00000000E-01  8.50000000E-01  8.50000000E-01
  8.50000000E-01  8.00000000E-01  8.50000000E-01  8.50000000E-01  8.50000000E-01
  8.00000000E-01  8.50000000E-01  8.50000000E-01  8.50000000E-01  8.00000000E-01
  8.50000000E-01  8.50000000E-01  8.50000000E-01  8.00000000E-01  8.50000000E-01
  8.50000000E-01  8.50000000E-01  8.00000000E-01  8.50000000E-01  8.50000000E-01
  8.50000000E-01  8.00000000E-01  8.50000000E-01  8.50000000E-01  8.50000000E-01
  8.00000000E-01  8.50000000E-01  8.50000000E-01  8.50000000E-01  8.00000000E-01
  8.50000000E-01  8.50000000E-01  8.50000000E-01  8.00000000E-01  8.50000000E-01
  8.50000000E-01  8.50000000E-01  8.00000000E-01  8.50000000E-01  8.50000000E-01
  8.50000000E-01  8.00000000E-01  8.50000000E-01  8.50000000E-01  8.50000000E-01
  8.00000000E-01  8.50000000E-01  8.50000000E-01  8.50000000E-01  8.00000000E-01
  8.50000000E-01  8.50000000E-01  8.50000000E-01  8.00000000E-01  8.50000000E-01
  8.50000000E-01  8.50000000E-01  8.00000000E-01  8.50000000E-01  8.50000000E-01
  8.50000000E-01  8.00000000E-01  8.50000000E-01  8.50000000E-01  8.50000000E-01
  8.00000000E-01  8.50000000E-01  8.50000000E-01  8.50000000E-01  8.00000000E-01
  8.50000000E-01  8.50000000E-01  8.50000000E-01  8.00000000E-01  8.50000000E-01
  8.50000000E-01  8.50000000E-01  8.00000000E-01  8.50000000E-01  8.50000000E-01
  8.50000000E-01  8.00000000E-01  8.50000000E-01  8.50000000E-01  8.50000000E-01
  8.00000000E-01  8.50000000E-01  8.50000000E-01  8.50000000E-01  8.00000000E-01
  8.50000000E-01  8.50000000E-01  8.50000000E-01  8.00000000E-01  8.50000000E-01
  8.50000000E-01  8.50000000E-01  8.00000000E-01  8.50000000E-01  8.50000000E-01
  8.50000000E-01  8.00000000E-01  8.50000000E-01  8.50000000E-01  8.50000000E-01
  8.00000000E-01  8.50000000E-01  8.50000000E-01  8.50000000E-01  8.00000000E-01
  8.50000000E-01  8.50000000E-01  8.50000000E-01  8.00000000E-01  8.50000000E-01
  8.50000000E-01  8.50000000E-01  8.00000000E-01  8.50000000E-01  8.50000000E-01
  8.50000000E-01  8.00000000E-01  8.50000000E-01  8.50000000E-01  8.50000000E-01
  8.00000000E-01  8.50000000E-01  8.50000000E-01  8.50000000E-01  8.00000000E-01
  8.50000000E-01  8.50000000E-01  8.50000000E-01  8.00000000E-01  8.50000000E-01
  8.50000000E-01  8.50000000E-01  8.00000000E-01  8.50000000E-01  8.50000000E-01
  8.50000000E-01  8.00000000E-01  8.50000000E-01  8.50000000E-01  8.50000000E-01
  8.00000000E-01  8.50000000E-01  8.50000000E-01  8.50000000E-01  8.00000000E-01
  8.50000000E-01  8.50000000E-01  8.50000000E-01  8.00000000E-01  8.50000000E-01
  8.50000000E-01  8.50000000E-01  8.00000000E-01  8.50000000E-01  8.50000000E-01
  8.50000000E-01  8.00000000E-01  8.50000000E-01  8.50000000E-01  8.50000000E-01
  8.00000000E-01  8.50000000E-01  8.50000000E-01  8.50000000E-01  8.00000000E-01
  8.50000000E-01  8.50000000E-01  8.50000000E-01  8.00000000E-01  8.50000000E-01
  8.50000000E-01  8.50000000E-01  8.00000000E-01  8.50000000E-01  8.50000000E-01
  8.50000000E-01  8.00000000E-01  8.50000000E-01  8.50000000E-01  8.50000000E-01
  8.00000000E-01  8.50000000E-01  8.50000000E-01  8.50000000E-01  8.00000000E-01
  8.50000000E-01  8.50000000E-01  8.50000000E-01  8.00000000E-01  8.50000000E-01
  8.50000000E-01  8.50000000E-01  8.00000000E-01  8.50000000E-01  8.50000000E-01
  8.50000000E-01  8.00000000E-01  8.50000000E-01  8.50000000E-01  8.50000000E-01
  8.00000000E-01  8.50000000E-01  8.50000000E-01  8.50000000E-01  8.00000000E-01
  8.50000000E-01  8.50000000E-01  8.50000000E-01  8.00000000E-01  8.50000000E-01
  8.50000000E-01  8.50000000E-01  8.00000000E-01  8.50000000E-01  8.50000000E-01
  8.50000000E-01  8.00000000E-01  8.50000000E-01  8.50000000E-01  8.50000000E-01
  8.00000000E-01  8.50000000E-01  8.50000000E-01  8.50000000E-01  8.00000000E-01
  8.50000000E-01  8.50000000E-01  8.50000000E-01  8.00000000E-01  8.50000000E-01
  8.50000000E-01  8.50000000E-01  8.00000000E-01  8.50000000E-01  8.50000000E-01
  8.50000000E-01  8.00000000E-01  8.50000000E-01  8.50000000E-01  8.50000000E-01
  8.00000000E-01  8.50000000E-01  8.50000000E-01  8.50000000E-01  8.00000000E-01
  8.50000000E-01  8.50000000E-01  8.50000000E-01  8.00000000E-01  8.50000000E-01
  8.50000000E-01  8.50000000E-01  8.00000000E-01  8.50000000E-01  8.50000000E-01
  8.50000000E-01  8.00000000E-01  8.50000000E-01  8.50000000E-01  8.50000000E-01
  8.00000000E-01  8.50000000E-01  8.50000000E-01  8.50000000E-01  8.00000000E-01
  8.50000000E-01  8.50000000E-01  8.50000000E-01  8.00000000E-01  8.50000000E-01
  8.50000000E-01  8.50000000E-01  8.00000000E-01  8.50000000E-01  8.50000000E-01
  8.50000000E-01  8.00000000E-01  8.50000000E-01  8.50000000E-01  8.50000000E-01
  8.00000000E-01  8.50000000E-01  8.50000000E-01  8.50000000E-01  8.00000000E-01
  8.50000000E-01  8.50000000E-01  8.50000000E-01  8.00000000E-01  8.50000000E-01
  8.50000000E-01  8.50000000E-01  8.00000000E-01  8.50000000E-01  8.50000000E-01
  8.50000000E-01  8.00000000E-01  8.50000000E-01  8.50000000E-01  8.50000000E-01
  8.00000000E-01  8.50000000E-01  8.50000000E-01  8.50000000E-01  8.00000000E-01
  8.50000000E-01  8.50000000E-01  8.50000000E-01  8.00000000E-01  8.50000000E-01
  8.50000000E-01  8.50000000E-01  8.00000000E-01  8.50000000E-01  8.50000000E-01
  8.50000000E-01  8.00000000E-01  8.50000000E-01  8.50000000E-01  8.50000000E-01
  8.00000000E-01  8.50000000E-01  8.50000000E-01  8.50000000E-01  8.00000000E-01
  8.50000000E-01  8.50000000E-01  8.50000000E-01  8.00000000E-01  8.50000000E-01
  8.50000000E-01  8.50000000E-01  8.00000000E-01  8.50000000E-01  8.50000000E-01
  8.50000000E-01  8.00000000E-01  8.50000000E-01  8.50000000E-01  8.50000000E-01
  8.00000000E-01  8.50000000E-01  8.50000000E-01  8.50000000E-01  8.00000000E-01
  8.50000000E-01  8.50000000E-01  8.50000000E-01  8.00000000E-01  8.50000000E-01
  8.50000000E-01  8.50000000E-01  8.00000000E-01  8.50000000E-01  8.50000000E-01
  8.50000000E-01  8.00000000E-01  8.50000000E-01  8.50000000E-01  8.50000000E-01
  8.00000000E-01  8.50000000E-01  8.50000000E-01  8.50000000E-01  8.00000000E-01
  8.50000000E-01  8.50000000E-01  8.50000000E-01  8.00000000E-01  8.50000000E-01
  8.50000000E-01  8.50000000E-01  8.00000000E-01  8.50000000E-01  8.50000000E-01
  8.50000000E-01  8.00000000E-01  8.50000000E-01  8.50000000E-01  8.50000000E-01
  8.00000000E-01  8.50000000E-01  8.50000000E-01  8.50000000E-01  8.00000000E-01
  8.50000000E-01  8.50000000E-01  8.50000000E-01  8.00000000E-01  8.50000000E-01
  8.50000000E-01  8.50000000E-01  8.00000000E-01  8.50000000E-01  8.50000000E-01
  8.50000000E-01  8.00000000E-01  8.50000000E-01  8.50000000E-01  8.50000000E-01
  8.00000000E-01  8.50000000E-01  8.50000000E-01  8.50000000E-01  8.00000000E-01
  8.50000000E-01  8.50000000E-01  8.50000000E-01  8.00000000E-01  8.50000000E-01
  8.50000000E-01  8.50000000E-01  8.00000000E-01  8.50000000E-01  8.50000000E-01
  8.50000000E-01  8.00000000E-01  8.50000000E-01  8.50000000E-01  8.50000000E-01
  8.00000000E-01  8.50000000E-01  8.50000000E-01  8.50000000E-01  8.00000000E-01
  8.50000000E-01  8.50000000E-01  8.50000000E-01  8.00000000E-01  8.50000000E-01
  8.50000000E-01  8.50000000E-01  8.00000000E-01  8.50000000E-01  8.50000000E-01
  8.50000000E-01  8.00000000E-01  8.50000000E-01  8.50000000E-01  8.50000000E-01
  8.00000000E-01  8.50000000E-01  8.50000000E-01  8.50000000E-01  8.00000000E-01
  8.50000000E-01  8.50000000E-01  8.50000000E-01  8.00000000E-01  8.50000000E-01
  8.50000000E-01  8.50000000E-01  8.00000000E-01  8.50000000E-01  8.50000000E-01
  8.50000000E-01  8.00000000E-01  8.50000000E-01  8.50000000E-01  8.50000000E-01
  8.00000000E-01  8.50000000E-01  8.50000000E-01  8.50000000E-01  8.00000000E-01
  8.50000000E-01  8.50000000E-01  8.50000000E-01  8.00000000E-01  8.50000000E-01
  8.50000000E-01  8.50000000E-01  8.00000000E-01  8.50000000E-01  8.50000000E-01
  8.50000000E-01  8.00000000E-01  8.50000000E-01  8.50000000E-01  8.50000000E-01
  8.00000000E-01  8.50000000E-01  8.50000000E-01  8.50000000E-01  8.00000000E-01
  8.50000000E-01  8.50000000E-01  8.50000000E-01  8.00000000E-01  8.50000000E-01
  8.50000000E-01  8.50000000E-01  8.00000000E-01  8.50000000E-01  8.50000000E-01
  8.50000000E-01  8.00000000E-01  8.50000000E-01  8.50000000E-01  8.50000000E-01
  8.00000000E-01  8.50000000E-01  8.50000000E-01  8.50000000E-01  8.00000000E-01
  8.50000000E-01  8.50000000E-01  8.50000000E-01  8.00000000E-01  8.50000000E-01
  8.50000000E-01  8.50000000E-01  8.00000000E-01  8.50000000E-01  8.50000000E-01
  8.50000000E-01  8.00000000E-01  8.50000000E-01  8.50000000E-01  8.50000000E-01
  8.00000000E-01  8.50000000E-01  8.50000000E-01  8.50000000E-01  8.00000000E-01
  8.50000000E-01  8.50000000E-01  8.50000000E-01  8.00000000E-01  8.50000000E-01
  8.50000000E-01  8.50000000E-01  8.00000000E-01  8.50000000E-01  8.50000000E-01
  8.50000000E-01  8.00000000E-01  8.50000000E-01  8.50000000E-01  8.50000000E-01
  8.00000000E-01  8.50000000E-01  8.50000000E-01  8.50000000E-01  8.00000000E-01
  8.50000000E-01  8.50000000E-01  8.50000000E-01  8.00000000E-01  8.50000000E-01
  8.50000000E-01  8.50000000E-01  8.00000000E-01  8.50000000E-01  8.50000000E-01
  8.50000000E-01  8.00000000E-01  8.50000000E-01  8.50000000E-01  8.50000000E-01
  8.00000000E-01  8.50000000E-01  8.50000000E-01  8.50000000E-01  8.00000000E-01
  8.50000000E-01  8.50000000E-01  8.50000000E-01  8.00000000E-01  8.50000000E-01
  8.50000000E-01  8.50000000E-01  8.00000000E-01  8.50000000E-01  8.50000000E-01
  8.50000000E-01  8.00000000E-01  8.50000000E-01  8.50000000E-01  8.50000000E-01
  8.00000000E-01  8.50000000E-01  8.50000000E-01  8.50000000E-01  8.00000000E-01
  8.50000000E-01  8.50000000E-01  8.50000000E-01  8.00000000E-01  8.50000000E-01
  8.50000000E-01  8.50000000E-01  8.00000000E-01  8.50000000E-01  8.50000000E-01
  8.50000000E-01  8.00000000E-01  8.50000000E-01  8.50000000E-01  8.50000000E-01
  8.00000000E-01  8.50000000E-01  8.50000000E-01  8.50000000E-01  8.00000000E-01
  8.50000000E-01  8.50000000E-01  8.50000000E-01  8.00000000E-01  8.50000000E-01
  8.50000000E-01  8.50000000E-01  8.00000000E-01  8.50000000E-01  8.50000000E-01
  8.50000000E-01  8.00000000E-01  8.50000000E-01  8.50000000E-01  8.50000000E-01
  8.00000000E-01  8.50000000E-01  8.50000000E-01  8.50000000E-01  8.00000000E-01
  8.50000000E-01  8.50000000E-01  8.50000000E-01  8.00000000E-01  8.50000000E-01
  8.50000000E-01  8.50000000E-01  8.00000000E-01  8.50000000E-01  8.50000000E-01
  8.50000000E-01  8.00000000E-01  8.50000000E-01  8.50000000E-01  8.50000000E-01
  8.00000000E-01  8.50000000E-01  8.50000000E-01  8.50000000E-01  8.00000000E-01
  8.50000000E-01  8.50000000E-01  8.50000000E-01  8.00000000E-01  8.50000000E-01
  8.50000000E-01  8.50000000E-01  8.00000000E-01  8.50000000E-01  8.50000000E-01
  8.50000000E-01  8.00000000E-01  8.50000000E-01  8.50000000E-01  8.50000000E-01
  8.00000000E-01  8.50000000E-01  8.50000000E-01  8.50000000E-01  8.00000000E-01
  8.50000000E-01  8.50000000E-01  8.50000000E-01  8.00000000E-01  8.50000000E-01
  8.50000000E-01  8.50000000E-01  8.00000000E-01  8.50000000E-01  8.50000000E-01
  8.50000000E-01  8.00000000E-01  8.50000000E-01  8.50000000E-01  8.50000000E-01
  8.00000000E-01  8.50000000E-01  8.50000000E-01  8.50000000E-01  8.00000000E-01
  8.50000000E-01  8.50000000E-01  8.50000000E-01  8.00000000E-01  8.50000000E-01
  8.50000000E-01  8.50000000E-01  8.00000000E-01  8.50000000E-01  8.50000000E-01
  8.50000000E-01  8.00000000E-01  8.50000000E-01  8.50000000E-01  8.50000000E-01
  8.00000000E-01  8.50000000E-01  8.50000000E-01  8.50000000E-01  8.00000000E-01
  8.50000000E-01  8.50000000E-01  8.50000000E-01  8.00000000E-01  8.50000000E-01
  8.50000000E-01  8.50000000E-01  8.00000000E-01  8.50000000E-01  8.50000000E-01
  8.50000000E-01  8.00000000E-01  8.50000000E-01  8.50000000E-01  8.50000000E-01
  8.00000000E-01  8.50000000E-01  8.50000000E-01  8.50000000E-01  8.00000000E-01
  8.50000000E-01  8.50000000E-01  8.50000000E-01  8.00000000E-01  8.50000000E-01
  8.50000000E-01  8.50000000E-01  8.00000000E-01  8.50000000E-01  8.50000000E-01
  8.50000000E-01  8.00000000E-01  8.50000000E-01  8.50000000E-01  8.50000000E-01
  8.00000000E-01  8.50000000E-01  8.50000000E-01  8.50000000E-01  8.00000000E-01
  8.50000000E-01  8.50000000E-01  8.50000000E-01  8.00000000E-01  8.50000000E-01
  8.50000000E-01  8.50000000E-01  8.00000000E-01  8.50000000E-01  8.50000000E-01
  8.50000000E-01  8.00000000E-01  8.50000000E-01  8.50000000E-01  8.50000000E-01
  8.00000000E-01  8.50000000E-01  8.50000000E-01  8.50000000E-01  8.00000000E-01
  8.50000000E-01  8.50000000E-01  8.50000000E-01  8.00000000E-01  8.50000000E-01
  8.50000000E-01  8.50000000E-01  8.00000000E-01  8.50000000E-01  8.50000000E-01
  8.50000000E-01  8.00000000E-01  8.50000000E-01  8.50000000E-01  8.50000000E-01
  8.00000000E-01  8.50000000E-01  8.50000000E-01  8.50000000E-01  8.00000000E-01
  8.50000000E-01  8.50000000E-01  8.50000000E-01  8.00000000E-01  8.50000000E-01
  8.50000000E-01  8.50000000E-01  8.00000000E-01  8.50000000E-01  8.50000000E-01
  8.50000000E-01  8.00000000E-01  8.50000000E-01  8.50000000E-01  8.50000000E-01
  8.00000000E-01  8.50000000E-01  8.50000000E-01  8.50000000E-01  8.00000000E-01
  8.50000000E-01  8.50000000E-01  8.50000000E-01  8.00000000E-01  8.50000000E-01
  8.50000000E-01  8.50000000E-01  8.00000000E-01  8.50000000E-01  8.50000000E-01
  8.50000000E-01  8.00000000E-01  8.50000000E-01  8.50000000E-01  8.50000000E-01
  8.00000000E-01  8.50000000E-01  8.50000000E-01  8.50000000E-01  8.00000000E-01
  8.50000000E-01  8.50000000E-01  8.50000000E-01  8.00000000E-01  8.50000000E-01
  8.50000000E-01  8.50000000E-01  8.00000000E-01  8.50000000E-01  8.50000000E-01
  8.50000000E-01  8.00000000E-01  8.50000000E-01  8.50000000E-01  8.50000000E-01
  8.00000000E-01  8.50000000E-01  8.50000000E-01  8.50000000E-01  8.00000000E-01
  8.50000000E-01  8.50000000E-01  8.50000000E-01  8.00000000E-01  8.50000000E-01
  8.50000000E-01  8.50000000E-01  8.00000000E-01  8.50000000E-01  8.50000000E-01
  8.50000000E-01  8.00000000E-01  8.50000000E-01  8.50000000E-01  8.50000000E-01
  8.00000000E-01  8.50000000E-01  8.50000000E-01  8.50000000E-01  8.00000000E-01
  8.50000000E-01  8.50000000E-01  8.50000000E-01  8.00000000E-01  8.50000000E-01
  8.50000000E-01  8.50000000E-01  8.00000000E-01  8.50000000E-01  8.50000000E-01
  8.50000000E-01  8.00000000E-01  8.50000000E-01  8.50000000E-01  8.50000000E-01
  8.00000000E-01  8.50000000E-01  8.50000000E-01  8.50000000E-01  8.00000000E-01
  8.50000000E-01  8.50000000E-01  8.50000000E-01  8.00000000E-01  8.50000000E-01
  8.50000000E-01  8.50000000E-01  8.00000000E-01  8.50000000E-01  8.50000000E-01
  8.50000000E-01  8.00000000E-01  8.50000000E-01  8.50000000E-01  8.50000000E-01
  8.00000000E-01  8.50000000E-01  8.50000000E-01  8.50000000E-01  8.00000000E-01
  8.50000000E-01  8.50000000E-01  8.50000000E-01  8.00000000E-01  8.50000000E-01
  8.50000000E-01  8.50000000E-01  8.00000000E-01  8.50000000E-01  8.50000000E-01
  8.50000000E-01  8.00000000E-01  8.50000000E-01  8.50000000E-01  8.50000000E-01
  8.00000000E-01  8.50000000E-01  8.50000000E-01  8.50000000E-01  8.00000000E-01
  8.50000000E-01  8.50000000E-01  8.50000000E-01  8.00000000E-01  8.50000000E-01
  8.50000000E-01  8.50000000E-01  8.00000000E-01  8.50000000E-01  8.50000000E-01
  8.50000000E-01  8.00000000E-01  8.50000000E-01  8.50000000E-01  8.50000000E-01
  8.00000000E-01  8.50000000E-01  8.50000000E-01  8.50000000E-01  8.00000000E-01
  8.50000000E-01  8.50000000E-01  8.50000000E-01  8.00000000E-01  8.50000000E-01
  8.50000000E-01  8.50000000E-01  8.00000000E-01  8.50000000E-01  8.50000000E-01
  8.50000000E-01  8.00000000E-01  8.50000000E-01  8.50000000E-01  8.50000000E-01
  8.00000000E-01  8.50000000E-01  8.50000000E-01  8.50000000E-01  8.00000000E-01
  8.50000000E-01  8.50000000E-01  8.50000000E-01  8.00000000E-01  8.50000000E-01
  8.50000000E-01  8.50000000E-01  8.00000000E-01  8.50000000E-01  8.50000000E-01
  8.50000000E-01  8.00000000E-01  8.50000000E-01  8.50000000E-01  8.50000000E-01
  8.00000000E-01  8.50000000E-01  8.50000000E-01  8.50000000E-01  8.00000000E-01
  8.50000000E-01  8.50000000E-01  8.50000000E-01  8.00000000E-01  8.50000000E-01
  8.50000000E-01  8.50000000E-01  8.00000000E-01  8.50000000E-01  8.50000000E-01
  8.50000000E-01  8.00000000E-01  8.50000000E-01  8.50000000E-01  8.50000000E-01
  8.00000000E-01  8.50000000E-01  8.50000000E-01  8.50000000E-01  8.00000000E-01
  8.50000000E-01  8.50000000E-01  8.50000000E-01  8.00000000E-01  8.50000000E-01
  8.50000000E-01  8.50000000E-01  8.00000000E-01  8.50000000E-01  8.50000000E-01
  8.50000000E-01  8.00000000E-01  8.50000000E-01  8.50000000E-01  8.50000000E-01
  8.00000000E-01  8.50000000E-01  8.50000000E-01  8.50000000E-01  8.00000000E-01
  8.50000000E-01  8.50000000E-01  8.50000000E-01  8.00000000E-01  8.50000000E-01
  8.50000000E-01  8.50000000E-01  8.00000000E-01  8.50000000E-01  8.50000000E-01
  8.50000000E-01  8.00000000E-01  8.50000000E-01  8.50000000E-01  8.50000000E-01
  8.00000000E-01  8.50000000E-01  8.50000000E-01  8.50000000E-01  8.00000000E-01
  8.50000000E-01  8.50000000E-01  8.50000000E-01  8.00000000E-01  8.50000000E-01
  8.50000000E-01  8.50000000E-01  8.00000000E-01  8.50000000E-01  8.50000000E-01
  8.50000000E-01  8.00000000E-01  8.50000000E-01  8.50000000E-01  8.50000000E-01
  8.00000000E-01  8.50000000E-01  8.50000000E-01  8.50000000E-01  8.00000000E-01
  8.50000000E-01  8.50000000E-01  8.50000000E-01  8.00000000E-01  8.50000000E-01
  8.50000000E-01  8.50000000E-01  8.00000000E-01  8.50000000E-01  8.50000000E-01
  8.50000000E-01  8.00000000E-01  8.50000000E-01  8.50000000E-01  8.50000000E-01
  8.00000000E-01  8.50000000E-01  8.50000000E-01  8.50000000E-01  8.00000000E-01
  8.50000000E-01  8.50000000E-01  8.50000000E-01  8.00000000E-01  8.50000000E-01
  8.50000000E-01  8.50000000E-01  8.00000000E-01  8.50000000E-01  8.50000000E-01
  8.50000000E-01  8.00000000E-01  8.50000000E-01  8.50000000E-01  8.50000000E-01
  8.00000000E-01  8.50000000E-01  8.50000000E-01  8.50000000E-01  8.00000000E-01
  8.50000000E-01  8.50000000E-01  8.50000000E-01  8.00000000E-01  8.50000000E-01
  8.50000000E-01  8.50000000E-01  8.00000000E-01  8.50000000E-01  8.50000000E-01
  8.50000000E-01  8.00000000E-01  8.50000000E-01  8.50000000E-01  8.50000000E-01
  8.00000000E-01  8.50000000E-01  8.50000000E-01  8.50000000E-01  8.00000000E-01
  8.50000000E-01  8.50000000E-01  8.50000000E-01  8.00000000E-01  8.50000000E-01
  8.50000000E-01  8.50000000E-01  8.00000000E-01  8.50000000E-01  8.50000000E-01
  8.50000000E-01  8.00000000E-01  8.50000000E-01  8.50000000E-01  8.50000000E-01
  8.00000000E-01  8.50000000E-01  8.50000000E-01  8.50000000E-01  8.00000000E-01
  8.50000000E-01  8.50000000E-01  8.50000000E-01  8.00000000E-01  8.50000000E-01
  8.50000000E-01  8.50000000E-01  8.00000000E-01  8.50000000E-01  8.50000000E-01
  8.50000000E-01  8.00000000E-01  8.50000000E-01  8.50000000E-01  8.50000000E-01
  8.00000000E-01  8.50000000E-01  8.50000000E-01  8.50000000E-01  8.00000000E-01
  8.50000000E-01  8.50000000E-01  8.50000000E-01  8.00000000E-01  8.50000000E-01
  8.50000000E-01  8.50000000E-01  8.00000000E-01  8.50000000E-01  8.50000000E-01
  8.50000000E-01  8.00000000E-01  8.50000000E-01  8.50000000E-01  8.50000000E-01
  8.00000000E-01  8.50000000E-01  8.50000000E-01  8.50000000E-01  8.00000000E-01
  8.50000000E-01  8.50000000E-01  8.50000000E-01  8.00000000E-01  8.50000000E-01
  8.50000000E-01  8.50000000E-01  8.00000000E-01  8.50000000E-01  8.50000000E-01
  8.50000000E-01  8.00000000E-01  8.50000000E-01  8.50000000E-01  8.50000000E-01
  8.00000000E-01  8.50000000E-01  8.50000000E-01  8.50000000E-01  8.00000000E-01
  8.50000000E-01  8.50000000E-01  8.50000000E-01  8.00000000E-01  8.50000000E-01
  8.50000000E-01  8.50000000E-01  8.00000000E-01  8.50000000E-01  8.50000000E-01
  8.50000000E-01  8.00000000E-01  8.50000000E-01  8.50000000E-01  8.50000000E-01
  8.00000000E-01  8.50000000E-01  8.50000000E-01  8.50000000E-01  8.00000000E-01
  8.50000000E-01  8.50000000E-01  8.50000000E-01  8.00000000E-01  8.50000000E-01
  8.50000000E-01  8.50000000E-01  8.00000000E-01  8.50000000E-01  8.50000000E-01
  8.50000000E-01  8.00000000E-01  8.50000000E-01  8.50000000E-01  8.50000000E-01
  8.00000000E-01  8.50000000E-01  8.50000000E-01  8.50000000E-01  8.00000000E-01
  8.50000000E-01  8.50000000E-01  8.50000000E-01  8.00000000E-01  8.50000000E-01
  8.50000000E-01  8.50000000E-01  8.00000000E-01  8.50000000E-01  8.50000000E-01
  8.50000000E-01  8.00000000E-01  8.50000000E-01  8.50000000E-01  8.50000000E-01
  8.00000000E-01  8.50000000E-01  8.50000000E-01  8.50000000E-01  8.00000000E-01
  8.50000000E-01  8.50000000E-01  8.50000000E-01  8.00000000E-01  8.50000000E-01
  8.50000000E-01  8.50000000E-01  8.00000000E-01  8.50000000E-01  8.50000000E-01
  8.50000000E-01  8.00000000E-01  8.50000000E-01  8.50000000E-01  8.50000000E-01
  8.00000000E-01  8.50000000E-01  8.50000000E-01  8.50000000E-01  8.00000000E-01
  8.50000000E-01  8.50000000E-01  8.50000000E-01  8.00000000E-01  8.50000000E-01
  8.50000000E-01  8.50000000E-01  8.00000000E-01  8.50000000E-01  8.50000000E-01
  8.50000000E-01  8.00000000E-01  8.50000000E-01  8.50000000E-01  8.50000000E-01
  8.00000000E-01  8.50000000E-01  8.50000000E-01  8.50000000E-01  8.00000000E-01
  8.50000000E-01  8.50000000E-01  8.50000000E-01  8.00000000E-01  8.50000000E-01
  8.50000000E-01  8.50000000E-01  8.00000000E-01  8.50000000E-01  8.50000000E-01
  8.50000000E-01  8.00000000E-01  8.50000000E-01  8.50000000E-01  8.50000000E-01
  8.00000000E-01  8.50000000E-01  8.50000000E-01  8.50000000E-01  8.00000000E-01
  8.50000000E-01  8.50000000E-01  8.50000000E-01  8.00000000E-01  8.50000000E-01
  8.50000000E-01  8.50000000E-01  8.00000000E-01  8.50000000E-01  8.50000000E-01
  8.50000000E-01  8.00000000E-01  8.50000000E-01  8.50000000E-01  8.50000000E-01
  8.00000000E-01  8.50000000E-01  8.50000000E-01  8.50000000E-01  8.00000000E-01
  8.50000000E-01  8.50000000E-01  8.50000000E-01  8.00000000E-01  8.50000000E-01
  8.50000000E-01  8.50000000E-01  8.00000000E-01  8.50000000E-01  8.50000000E-01
  8.50000000E-01  8.00000000E-01  8.50000000E-01  8.50000000E-01  8.50000000E-01
  8.00000000E-01  8.50000000E-01  8.50000000E-01  8.50000000E-01  8.00000000E-01
  8.50000000E-01  8.50000000E-01  8.50000000E-01  8.00000000E-01  8.50000000E-01
  8.50000000E-01  8.50000000E-01  8.00000000E-01  8.50000000E-01  8.50000000E-01
  8.50000000E-01  8.00000000E-01  8.50000000E-01  8.50000000E-01  8.50000000E-01
  8.00000000E-01  8.50000000E-01  8.50000000E-01  8.50000000E-01  8.00000000E-01
  8.50000000E-01  8.50000000E-01  8.50000000E-01  8.00000000E-01  8.50000000E-01
  8.50000000E-01  8.50000000E-01  8.00000000E-01  8.50000000E-01  8.50000000E-01
  8.50000000E-01  8.00000000E-01  8.50000000E-01  8.50000000E-01  8.50000000E-01
  8.00000000E-01  8.50000000E-01  8.50000000E-01  8.50000000E-01  8.00000000E-01
  8.50000000E-01  8.50000000E-01  8.50000000E-01  8.00000000E-01  8.50000000E-01
  8.50000000E-01  8.50000000E-01  8.00000000E-01  8.50000000E-01  8.50000000E-01
  8.50000000E-01  8.00000000E-01  8.50000000E-01  8.50000000E-01  8.50000000E-01
  8.00000000E-01  8.50000000E-01  8.50000000E-01  8.50000000E-01  8.00000000E-01
  8.50000000E-01  8.50000000E-01  8.50000000E-01  8.00000000E-01  8.50000000E-01
  8.50000000E-01  8.50000000E-01  8.00000000E-01  8.50000000E-01  8.50000000E-01
  8.50000000E-01  8.00000000E-01  8.50000000E-01  8.50000000E-01  8.50000000E-01
  8.00000000E-01  8.50000000E-01  8.50000000E-01  8.50000000E-01  8.00000000E-01
  8.50000000E-01  8.50000000E-01  8.50000000E-01  8.00000000E-01  8.50000000E-01
  8.50000000E-01  8.50000000E-01  8.00000000E-01  8.50000000E-01  8.50000000E-01
  8.50000000E-01  8.00000000E-01  8.50000000E-01  8.50000000E-01  8.50000000E-01
  8.00000000E-01  8.50000000E-01  8.50000000E-01  8.50000000E-01  8.00000000E-01
  8.50000000E-01  8.50000000E-01  8.50000000E-01  8.00000000E-01  8.50000000E-01
  8.50000000E-01  8.50000000E-01  8.00000000E-01  8.50000000E-01  8.50000000E-01
  8.50000000E-01  8.00000000E-01  8.50000000E-01  8.50000000E-01  8.50000000E-01
  8.00000000E-01  8.50000000E-01  8.50000000E-01  8.50000000E-01  8.00000000E-01
  8.50000000E-01  8.50000000E-01  8.50000000E-01  8.00000000E-01  8.50000000E-01
  8.50000000E-01  8.50000000E-01  8.00000000E-01  8.50000000E-01  8.50000000E-01
  8.50000000E-01  8.00000000E-01  8.50000000E-01  8.50000000E-01  8.50000000E-01
  8.00000000E-01  8.50000000E-01  8.50000000E-01  8.50000000E-01  8.00000000E-01
  8.50000000E-01  8.50000000E-01  8.50000000E-01  8.00000000E-01  8.50000000E-01
  8.50000000E-01  8.50000000E-01  8.00000000E-01  8.50000000E-01  8.50000000E-01
  8.50000000E-01  8.00000000E-01  8.50000000E-01  8.50000000E-01  8.50000000E-01
  8.00000000E-01  8.50000000E-01  8.50000000E-01  8.50000000E-01  8.00000000E-01
  8.50000000E-01  8.50000000E-01  8.50000000E-01  8.00000000E-01  8.50000000E-01
  8.50000000E-01  8.50000000E-01  8.00000000E-01  8.50000000E-01  8.50000000E-01
  8.50000000E-01  8.00000000E-01  8.50000000E-01  8.50000000E-01  8.50000000E-01
  8.00000000E-01  8.50000000E-01  8.50000000E-01  8.50000000E-01  8.00000000E-01
  8.50000000E-01  8.50000000E-01  8.50000000E-01  8.00000000E-01  8.50000000E-01
  8.50000000E-01  8.50000000E-01  8.00000000E-01  8.50000000E-01  8.50000000E-01
  8.50000000E-01  8.00000000E-01  8.50000000E-01  8.50000000E-01  8.50000000E-01
  8.00000000E-01  8.50000000E-01  8.50000000E-01  8.50000000E-01  8.00000000E-01
  8.50000000E-01  8.50000000E-01  8.50000000E-01  8.00000000E-01  8.50000000E-01
  8.50000000E-01  8.50000000E-01  8.00000000E-01  8.50000000E-01  8.50000000E-01
  8.50000000E-01  8.00000000E-01  8.50000000E-01  8.50000000E-01  8.50000000E-01
  8.00000000E-01  8.50000000E-01  8.50000000E-01  8.50000000E-01  8.00000000E-01
  8.50000000E-01  8.50000000E-01  8.50000000E-01  8.00000000E-01  8.50000000E-01
  8.50000000E-01  8.50000000E-01  8.00000000E-01  8.50000000E-01  8.50000000E-01
  8.50000000E-01  8.00000000E-01  8.50000000E-01  8.50000000E-01  8.50000000E-01
  8.00000000E-01  8.50000000E-01  8.50000000E-01  8.50000000E-01  8.00000000E-01
  8.50000000E-01  8.50000000E-01  8.50000000E-01  8.00000000E-01  8.50000000E-01
  8.50000000E-01  8.50000000E-01  8.00000000E-01  8.50000000E-01  8.50000000E-01
  8.50000000E-01  8.00000000E-01  8.50000000E-01  8.50000000E-01  8.50000000E-01
  8.00000000E-01  8.50000000E-01  8.50000000E-01  8.50000000E-01  8.00000000E-01
  8.50000000E-01  8.50000000E-01  8.50000000E-01  8.00000000E-01  8.50000000E-01
  8.50000000E-01  8.50000000E-01  8.00000000E-01  8.50000000E-01  8.50000000E-01
  8.50000000E-01  8.00000000E-01  8.50000000E-01  8.50000000E-01  8.50000000E-01
  8.00000000E-01  8.50000000E-01  8.50000000E-01  8.50000000E-01  8.00000000E-01
  8.50000000E-01  8.50000000E-01  8.50000000E-01  8.00000000E-01  8.50000000E-01
  8.50000000E-01  8.50000000E-01  8.00000000E-01  8.50000000E-01  8.50000000E-01
  8.50000000E-01  8.00000000E-01  8.50000000E-01  8.50000000E-01  8.50000000E-01
  8.00000000E-01  8.50000000E-01  8.50000000E-01  8.50000000E-01  8.00000000E-01
  8.50000000E-01  8.50000000E-01  8.50000000E-01  8.00000000E-01  8.50000000E-01
  8.50000000E-01  8.50000000E-01  8.00000000E-01  8.50000000E-01  8.50000000E-01
  8.50000000E-01  8.00000000E-01  8.50000000E-01  8.50000000E-01  8.50000000E-01
  8.00000000E-01  8.50000000E-01  8.50000000E-01  8.50000000E-01  8.00000000E-01
  8.50000000E-01  8.50000000E-01  8.50000000E-01  8.00000000E-01  8.50000000E-01
  8.50000000E-01  8.50000000E-01  8.00000000E-01  8.50000000E-01  8.50000000E-01
  8.50000000E-01  8.00000000E-01  8.50000000E-01  8.50000000E-01  8.50000000E-01
  8.00000000E-01  8.50000000E-01  8.50000000E-01  8.50000000E-01  8.00000000E-01
  8.50000000E-01  8.50000000E-01  8.50000000E-01  8.00000000E-01  8.50000000E-01
  8.50000000E-01  8.50000000E-01  8.00000000E-01  8.50000000E-01  8.50000000E-01
  8.50000000E-01  8.00000000E-01  8.50000000E-01  8.50000000E-01  8.50000000E-01
  8.00000000E-01  8.50000000E-01  8.50000000E-01  8.50000000E-01  8.00000000E-01
  8.50000000E-01  8.50000000E-01  8.50000000E-01  8.00000000E-01  8.50000000E-01
  8.50000000E-01  8.50000000E-01  8.00000000E-01  8.50000000E-01  8.50000000E-01
  8.50000000E-01  8.00000000E-01  8.50000000E-01  8.50000000E-01  8.50000000E-01
  8.00000000E-01  8.50000000E-01  8.50000000E-01  8.50000000E-01  8.00000000E-01
  8.50000000E-01  8.50000000E-01  8.50000000E-01  8.00000000E-01  8.50000000E-01
  8.50000000E-01  8.50000000E-01  8.00000000E-01  8.50000000E-01  8.50000000E-01
  8.50000000E-01  8.00000000E-01  8.50000000E-01  8.50000000E-01  8.50000000E-01
  8.00000000E-01  8.50000000E-01  8.50000000E-01  8.50000000E-01  8.00000000E-01
  8.50000000E-01  8.50000000E-01  8.50000000E-01  8.00000000E-01  8.50000000E-01
  8.50000000E-01  8.50000000E-01  8.00000000E-01  8.50000000E-01  8.50000000E-01
  8.50000000E-01  8.00000000E-01  8.50000000E-01  8.50000000E-01  8.50000000E-01
  8.00000000E-01  8.50000000E-01  8.50000000E-01  8.50000000E-01  8.00000000E-01
  8.50000000E-01  8.50000000E-01  8.50000000E-01  8.00000000E-01  8.50000000E-01
  8.50000000E-01  8.50000000E-01  8.00000000E-01  8.50000000E-01  8.50000000E-01
  8.50000000E-01  8.00000000E-01  8.50000000E-01  8.50000000E-01  8.50000000E-01
  8.00000000E-01  8.50000000E-01  8.50000000E-01  8.50000000E-01  8.00000000E-01
  8.50000000E-01  8.50000000E-01  8.50000000E-01  8.00000000E-01  8.50000000E-01
  8.50000000E-01  8.50000000E-01  8.00000000E-01  8.50000000E-01  8.50000000E-01
  8.50000000E-01  8.00000000E-01  8.50000000E-01  8.50000000E-01  8.50000000E-01
  8.00000000E-01  8.50000000E-01  8.50000000E-01  8.50000000E-01  8.00000000E-01
  8.50000000E-01  8.50000000E-01  8.50000000E-01  8.00000000E-01  8.50000000E-01
  8.50000000E-01  8.50000000E-01  8.00000000E-01  8.50000000E-01  8.50000000E-01
  8.50000000E-01  8.00000000E-01  8.50000000E-01  8.50000000E-01  8.50000000E-01
  8.00000000E-01  8.50000000E-01  8.50000000E-01  8.50000000E-01  8.00000000E-01
  8.50000000E-01  8.50000000E-01  8.50000000E-01  8.00000000E-01  8.50000000E-01
  8.50000000E-01  8.50000000E-01  8.00000000E-01  8.50000000E-01  8.50000000E-01
  8.50000000E-01  8.00000000E-01  8.50000000E-01  8.50000000E-01  8.50000000E-01
  8.00000000E-01  8.50000000E-01  8.50000000E-01  8.50000000E-01  8.00000000E-01
  8.50000000E-01  8.50000000E-01  8.50000000E-01  8.00000000E-01  8.50000000E-01
  8.50000000E-01  8.50000000E-01  8.00000000E-01  8.50000000E-01  8.50000000E-01
  8.50000000E-01  8.00000000E-01  8.50000000E-01  8.50000000E-01  8.50000000E-01
  8.00000000E-01  8.50000000E-01  8.50000000E-01  8.50000000E-01  8.00000000E-01
  8.50000000E-01  8.50000000E-01  8.50000000E-01  8.00000000E-01  8.50000000E-01
  8.50000000E-01  8.50000000E-01  8.00000000E-01  8.50000000E-01  8.50000000E-01
  8.50000000E-01  8.00000000E-01  8.50000000E-01  8.50000000E-01  8.50000000E-01
  8.00000000E-01  8.50000000E-01  8.50000000E-01  8.50000000E-01  8.00000000E-01
  8.50000000E-01  8.50000000E-01  8.50000000E-01  8.00000000E-01  8.50000000E-01
  8.50000000E-01  8.50000000E-01  8.00000000E-01  8.50000000E-01  8.50000000E-01
  8.50000000E-01  8.00000000E-01  8.50000000E-01  8.50000000E-01  8.50000000E-01
  8.00000000E-01  8.50000000E-01  8.50000000E-01  8.50000000E-01  8.00000000E-01
  8.50000000E-01  8.50000000E-01  8.50000000E-01  8.00000000E-01  8.50000000E-01
  8.50000000E-01  8.50000000E-01  8.00000000E-01  8.50000000E-01  8.50000000E-01
  8.50000000E-01  8.00000000E-01  8.50000000E-01  8.50000000E-01  8.50000000E-01
  8.00000000E-01  8.50000000E-01  8.50000000E-01  8.50000000E-01  8.00000000E-01
  8.50000000E-01  8.50000000E-01  8.50000000E-01  8.00000000E-01  8.50000000E-01
  8.50000000E-01  8.50000000E-01  8.00000000E-01  8.50000000E-01  8.50000000E-01
  8.50000000E-01  8.00000000E-01  8.50000000E-01  8.50000000E-01  8.50000000E-01
  8.00000000E-01  8.50000000E-01  8.50000000E-01  8.50000000E-01  8.00000000E-01
  8.50000000E-01  8.50000000E-01  8.50000000E-01  8.00000000E-01  8.50000000E-01
  8.50000000E-01  8.50000000E-01  8.00000000E-01  8.50000000E-01  8.50000000E-01
  8.50000000E-01  8.00000000E-01  8.50000000E-01  8.50000000E-01  8.50000000E-01
  8.00000000E-01  8.50000000E-01  8.50000000E-01  8.50000000E-01  8.00000000E-01
  8.50000000E-01  8.50000000E-01  8.50000000E-01  8.00000000E-01  8.50000000E-01
  8.50000000E-01  8.50000000E-01  8.00000000E-01  8.50000000E-01  8.50000000E-01
  8.50000000E-01  8.00000000E-01  8.50000000E-01  8.50000000E-01  8.50000000E-01
  8.00000000E-01  8.50000000E-01  8.50000000E-01  8.50000000E-01  8.00000000E-01
  8.50000000E-01  8.50000000E-01  8.50000000E-01  8.00000000E-01  8.50000000E-01
  8.50000000E-01  8.50000000E-01  8.00000000E-01  8.50000000E-01  8.50000000E-01
  8.50000000E-01  8.00000000E-01  8.50000000E-01  8.50000000E-01  8.50000000E-01
  8.00000000E-01  8.50000000E-01  8.50000000E-01  8.50000000E-01  8.00000000E-01
  8.50000000E-01  8.50000000E-01  8.50000000E-01  8.00000000E-01  8.50000000E-01
  8.50000000E-01  8.50000000E-01  8.00000000E-01  8.50000000E-01  8.50000000E-01
  8.50000000E-01  8.00000000E-01  8.50000000E-01  8.50000000E-01  8.50000000E-01
  8.00000000E-01  8.50000000E-01  8.50000000E-01  8.50000000E-01  8.00000000E-01
  8.50000000E-01  8.50000000E-01  8.50000000E-01  8.00000000E-01  8.50000000E-01
  8.50000000E-01  8.50000000E-01  8.00000000E-01  8.50000000E-01  8.50000000E-01
  8.50000000E-01  8.00000000E-01  8.50000000E-01  8.50000000E-01  8.50000000E-01
  8.00000000E-01  8.50000000E-01  8.50000000E-01  8.50000000E-01  8.00000000E-01
  8.50000000E-01  8.50000000E-01  8.50000000E-01  8.00000000E-01  8.50000000E-01
  8.50000000E-01  8.50000000E-01  8.00000000E-01  8.50000000E-01  8.50000000E-01
  8.50000000E-01  8.00000000E-01  8.50000000E-01  8.50000000E-01  8.50000000E-01
  8.00000000E-01  8.50000000E-01  8.50000000E-01  8.50000000E-01  8.00000000E-01
  8.50000000E-01  8.50000000E-01  8.50000000E-01  8.00000000E-01  8.50000000E-01
  8.50000000E-01  8.50000000E-01  8.00000000E-01  8.50000000E-01  8.50000000E-01
  8.50000000E-01  8.00000000E-01  8.50000000E-01  8.50000000E-01  8.50000000E-01
  8.00000000E-01  8.50000000E-01  8.50000000E-01  8.50000000E-01  8.00000000E-01
  8.50000000E-01  8.50000000E-01  8.50000000E-01  8.00000000E-01  8.50000000E-01
  8.50000000E-01  8.50000000E-01  8.00000000E-01  8.50000000E-01  8.50000000E-01
  8.50000000E-01  8.00000000E-01  8.50000000E-01  8.50000000E-01  8.50000000E-01
  8.00000000E-01  8.50000000E-01  8.50000000E-01  8.50000000E-01  8.00000000E-01
  8.50000000E-01  8.50000000E-01  8.50000000E-01  8.00000000E-01  8.50000000E-01
  8.50000000E-01  8.50000000E-01  8.00000000E-01  8.50000000E-01  8.50000000E-01
  8.50000000E-01  8.00000000E-01  8.50000000E-01  8.50000000E-01  8.50000000E-01
  8.00000000E-01  8.50000000E-01  8.50000000E-01  8.50000000E-01  8.00000000E-01
  8.50000000E-01  8.50000000E-01  8.50000000E-01  8.00000000E-01  8.50000000E-01
  8.50000000E-01  8.50000000E-01  8.00000000E-01  8.50000000E-01  8.50000000E-01
  8.50000000E-01  8.00000000E-01  8.50000000E-01  8.50000000E-01  8.50000000E-01
  8.00000000E-01  8.50000000E-01  8.50000000E-01  8.50000000E-01  8.00000000E-01
  8.50000000E-01  8.50000000E-01  8.50000000E-01  8.00000000E-01  8.50000000E-01
  8.50000000E-01  8.50000000E-01  8.00000000E-01  8.50000000E-01  8.50000000E-01
  8.50000000E-01  8.00000000E-01  8.50000000E-01  8.50000000E-01  8.50000000E-01
  8.00000000E-01  8.50000000E-01  8.50000000E-01  8.50000000E-01  8.00000000E-01
  8.50000000E-01  8.50000000E-01  8.50000000E-01  8.00000000E-01  8.50000000E-01
  8.50000000E-01  8.50000000E-01  8.00000000E-01  8.50000000E-01  8.50000000E-01
  8.50000000E-01  8.00000000E-01  8.50000000E-01  8.50000000E-01  8.50000000E-01
  8.00000000E-01  8.50000000E-01  8.50000000E-01  8.50000000E-01  8.00000000E-01
  8.50000000E-01  8.50000000E-01  8.50000000E-01  8.00000000E-01  8.50000000E-01
  8.50000000E-01  8.50000000E-01  8.00000000E-01  8.50000000E-01  8.50000000E-01
  8.50000000E-01  8.00000000E-01  8.50000000E-01  8.50000000E-01  8.50000000E-01
  8.00000000E-01  8.50000000E-01  8.50000000E-01  8.50000000E-01  8.00000000E-01
  8.50000000E-01  8.50000000E-01  8.50000000E-01  8.00000000E-01  8.50000000E-01
  8.50000000E-01  8.50000000E-01  8.00000000E-01  8.50000000E-01  8.50000000E-01
  8.50000000E-01  8.00000000E-01  8.50000000E-01  8.50000000E-01  8.50000000E-01
  8.00000000E-01  8.50000000E-01  8.50000000E-01  8.50000000E-01  8.00000000E-01
  8.50000000E-01  8.50000000E-01  8.50000000E-01  8.00000000E-01  8.50000000E-01
  8.50000000E-01  8.50000000E-01  8.00000000E-01  8.50000000E-01  8.50000000E-01
  8.50000000E-01  8.00000000E-01  8.50000000E-01  8.50000000E-01  8.50000000E-01
  8.00000000E-01  8.50000000E-01  8.50000000E-01  8.50000000E-01  8.00000000E-01
  8.50000000E-01  8.50000000E-01  8.50000000E-01  8.00000000E-01  8.50000000E-01
  8.50000000E-01  8.50000000E-01  8.00000000E-01  8.50000000E-01  8.50000000E-01
  8.50000000E-01  8.00000000E-01  8.50000000E-01  8.50000000E-01  8.50000000E-01
  8.00000000E-01  8.50000000E-01  8.50000000E-01  8.50000000E-01  8.00000000E-01
  8.50000000E-01  8.50000000E-01  8.50000000E-01  8.00000000E-01  8.50000000E-01
  8.50000000E-01  8.50000000E-01  8.00000000E-01  8.50000000E-01  8.50000000E-01
  8.50000000E-01  8.00000000E-01  8.50000000E-01  8.50000000E-01  8.50000000E-01
  8.00000000E-01  8.50000000E-01  8.50000000E-01  8.50000000E-01  8.00000000E-01
  8.50000000E-01  8.50000000E-01  8.50000000E-01  8.00000000E-01  8.50000000E-01
  8.50000000E-01  8.50000000E-01  8.00000000E-01  8.50000000E-01  8.50000000E-01
  8.50000000E-01  8.00000000E-01  8.50000000E-01  8.50000000E-01  8.50000000E-01
  8.00000000E-01  8.50000000E-01  8.50000000E-01  8.50000000E-01  8.00000000E-01
  8.50000000E-01  8.50000000E-01  8.50000000E-01  8.00000000E-01  8.50000000E-01
  8.50000000E-01  8.50000000E-01  8.00000000E-01  8.50000000E-01  8.50000000E-01
  8.50000000E-01  8.00000000E-01  8.50000000E-01  8.50000000E-01  8.50000000E-01
  8.00000000E-01  8.50000000E-01  8.50000000E-01  8.50000000E-01  8.00000000E-01
  8.50000000E-01  8.50000000E-01  8.50000000E-01  8.00000000E-01  8.50000000E-01
  8.50000000E-01  8.50000000E-01  8.00000000E-01  8.50000000E-01  8.50000000E-01
  8.50000000E-01  8.00000000E-01  8.50000000E-01  8.50000000E-01  8.50000000E-01
  8.00000000E-01  8.50000000E-01  8.50000000E-01  8.50000000E-01  8.00000000E-01
  8.50000000E-01  8.50000000E-01  8.50000000E-01  8.00000000E-01  8.50000000E-01
  8.50000000E-01  8.50000000E-01  8.00000000E-01  8.50000000E-01  8.50000000E-01
  8.50000000E-01  8.00000000E-01  8.50000000E-01  8.50000000E-01  8.50000000E-01
  8.00000000E-01  8.50000000E-01  8.50000000E-01  8.50000000E-01  8.00000000E-01
  8.50000000E-01  8.50000000E-01  8.50000000E-01  8.00000000E-01  8.50000000E-01
  8.50000000E-01  8.50000000E-01  8.00000000E-01  8.50000000E-01  8.50000000E-01
  8.50000000E-01  8.00000000E-01  8.50000000E-01  8.50000000E-01  8.50000000E-01
  8.00000000E-01  8.50000000E-01  8.50000000E-01  8.50000000E-01  8.00000000E-01
  8.50000000E-01  8.50000000E-01  8.50000000E-01  8.00000000E-01  8.50000000E-01
  8.50000000E-01  8.50000000E-01  8.00000000E-01  8.50000000E-01  8.50000000E-01
  8.50000000E-01  8.00000000E-01  8.50000000E-01  8.50000000E-01  8.50000000E-01
  8.00000000E-01  8.50000000E-01  8.50000000E-01  8.50000000E-01  8.00000000E-01
  8.50000000E-01  8.50000000E-01  8.50000000E-01  8.00000000E-01  8.50000000E-01
  8.50000000E-01  8.50000000E-01  8.00000000E-01  8.50000000E-01  8.50000000E-01
  8.50000000E-01  8.00000000E-01  8.50000000E-01  8.50000000E-01  8.50000000E-01
  8.00000000E-01  8.50000000E-01  8.50000000E-01  8.50000000E-01  8.00000000E-01
  8.50000000E-01  8.50000000E-01  8.50000000E-01  8.00000000E-01  8.50000000E-01
  8.50000000E-01  8.50000000E-01  8.00000000E-01  8.50000000E-01  8.50000000E-01
  8.50000000E-01  8.00000000E-01  8.50000000E-01  8.50000000E-01  8.50000000E-01
  8.00000000E-01  8.50000000E-01  8.50000000E-01  8.50000000E-01  8.00000000E-01
  8.50000000E-01  8.50000000E-01  8.50000000E-01  8.00000000E-01  8.50000000E-01
  8.50000000E-01  8.50000000E-01  8.00000000E-01  8.50000000E-01  8.50000000E-01
  8.50000000E-01  8.00000000E-01  8.50000000E-01  8.50000000E-01  8.50000000E-01
  8.00000000E-01  8.50000000E-01  8.50000000E-01  8.50000000E-01  8.00000000E-01
  8.50000000E-01  8.50000000E-01  8.50000000E-01  8.00000000E-01  8.50000000E-01
  8.50000000E-01  8.50000000E-01  8.00000000E-01  8.50000000E-01  8.50000000E-01
  8.50000000E-01  8.00000000E-01  8.50000000E-01  8.50000000E-01  8.50000000E-01
  8.00000000E-01  8.50000000E-01  8.50000000E-01  8.50000000E-01  8.00000000E-01
  8.50000000E-01  8.50000000E-01  8.50000000E-01  8.00000000E-01  8.50000000E-01
  8.50000000E-01  8.50000000E-01  8.00000000E-01  8.50000000E-01  8.50000000E-01
  8.50000000E-01  8.00000000E-01  8.50000000E-01  8.50000000E-01  8.50000000E-01
  8.00000000E-01  8.50000000E-01  8.50000000E-01  8.50000000E-01  8.00000000E-01
  8.50000000E-01  8.50000000E-01  8.50000000E-01  8.00000000E-01  8.50000000E-01
  8.50000000E-01  8.50000000E-01  8.00000000E-01  8.50000000E-01  8.50000000E-01
  8.50000000E-01  8.00000000E-01  8.50000000E-01  8.50000000E-01  8.50000000E-01
  8.00000000E-01  8.50000000E-01  8.50000000E-01  8.50000000E-01  8.00000000E-01
  8.50000000E-01  8.50000000E-01  8.50000000E-01  8.00000000E-01  8.50000000E-01
  8.50000000E-01  8.50000000E-01  8.00000000E-01  8.50000000E-01  8.50000000E-01
  8.50000000E-01  8.00000000E-01  8.50000000E-01  8.50000000E-01  8.50000000E-01
  8.00000000E-01  8.50000000E-01  8.50000000E-01  8.50000000E-01  8.00000000E-01
  8.50000000E-01  8.50000000E-01  8.50000000E-01  8.00000000E-01  8.50000000E-01
  8.50000000E-01  8.50000000E-01  8.00000000E-01  8.50000000E-01  8.50000000E-01
  8.50000000E-01  8.00000000E-01  8.50000000E-01  8.50000000E-01  8.50000000E-01
  8.00000000E-01  8.50000000E-01  8.50000000E-01  8.50000000E-01  8.00000000E-01
  8.50000000E-01  8.50000000E-01  8.50000000E-01  8.00000000E-01  8.50000000E-01
  8.50000000E-01  8.50000000E-01  8.00000000E-01  8.50000000E-01  8.50000000E-01
  8.50000000E-01  8.00000000E-01  8.50000000E-01  8.50000000E-01  8.50000000E-01
  8.00000000E-01  8.50000000E-01  8.50000000E-01  8.50000000E-01  8.00000000E-01
  8.50000000E-01  8.50000000E-01  8.50000000E-01  8.00000000E-01  8.50000000E-01
  8.50000000E-01  8.50000000E-01  8.00000000E-01  8.50000000E-01  8.50000000E-01
  8.50000000E-01  8.00000000E-01  8.50000000E-01  8.50000000E-01  8.50000000E-01
  8.00000000E-01  8.50000000E-01  8.50000000E-01  8.50000000E-01  8.00000000E-01
  8.50000000E-01  8.50000000E-01  8.50000000E-01  8.00000000E-01  8.50000000E-01
  8.50000000E-01  8.50000000E-01  8.00000000E-01  8.50000000E-01  8.50000000E-01
  8.50000000E-01  8.00000000E-01  8.50000000E-01  8.50000000E-01  8.50000000E-01
  8.00000000E-01  8.50000000E-01  8.50000000E-01  8.50000000E-01  8.00000000E-01
  8.50000000E-01  8.50000000E-01  8.50000000E-01  8.00000000E-01  8.50000000E-01
  8.50000000E-01  8.50000000E-01  8.00000000E-01  8.50000000E-01  8.50000000E-01
  8.50000000E-01  8.00000000E-01  8.50000000E-01  8.50000000E-01  8.50000000E-01
  8.00000000E-01  8.50000000E-01  8.50000000E-01  8.50000000E-01  8.00000000E-01
  8.50000000E-01  8.50000000E-01  8.50000000E-01  8.00000000E-01  8.50000000E-01
  8.50000000E-01  8.50000000E-01  8.00000000E-01  8.50000000E-01  8.50000000E-01
  8.50000000E-01  8.00000000E-01  8.50000000E-01  8.50000000E-01  8.50000000E-01
  8.00000000E-01  8.50000000E-01  8.50000000E-01  8.50000000E-01  8.00000000E-01
  8.50000000E-01  8.50000000E-01  8.50000000E-01  8.00000000E-01  8.50000000E-01
  8.50000000E-01  8.50000000E-01  8.00000000E-01  8.50000000E-01  8.50000000E-01
  8.50000000E-01  8.00000000E-01  8.50000000E-01  8.50000000E-01  8.50000000E-01
  8.00000000E-01  8.50000000E-01  8.50000000E-01  8.50000000E-01  8.00000000E-01
  8.50000000E-01  8.50000000E-01  8.50000000E-01  8.00000000E-01  8.50000000E-01
  8.50000000E-01  8.50000000E-01  8.00000000E-01  8.50000000E-01  8.50000000E-01
  8.50000000E-01  8.00000000E-01  8.50000000E-01  8.50000000E-01  8.50000000E-01
  8.00000000E-01  8.50000000E-01  8.50000000E-01  8.50000000E-01  8.00000000E-01
  8.50000000E-01  8.50000000E-01  8.50000000E-01  8.00000000E-01  8.50000000E-01
  8.50000000E-01  8.50000000E-01  8.00000000E-01  8.50000000E-01  8.50000000E-01
  8.50000000E-01  8.00000000E-01  8.50000000E-01  8.50000000E-01  8.50000000E-01
  8.00000000E-01  8.50000000E-01  8.50000000E-01  8.50000000E-01  8.00000000E-01
  8.50000000E-01  8.50000000E-01  8.50000000E-01  8.00000000E-01  8.50000000E-01
  8.50000000E-01  8.50000000E-01  8.00000000E-01  8.50000000E-01  8.50000000E-01
  8.50000000E-01  8.00000000E-01  8.50000000E-01  8.50000000E-01  8.50000000E-01
  8.00000000E-01  8.50000000E-01  8.50000000E-01  8.50000000E-01  8.00000000E-01
  8.50000000E-01  8.50000000E-01  8.50000000E-01  8.00000000E-01  8.50000000E-01
  8.50000000E-01  8.50000000E-01  8.00000000E-01  8.50000000E-01  8.50000000E-01
  8.50000000E-01  8.00000000E-01  8.50000000E-01  8.50000000E-01  8.50000000E-01
  8.00000000E-01  8.50000000E-01  8.50000000E-01  8.50000000E-01  8.00000000E-01
  8.50000000E-01  8.50000000E-01  8.50000000E-01  8.00000000E-01  8.50000000E-01
  8.50000000E-01  8.50000000E-01  8.00000000E-01  8.50000000E-01  8.50000000E-01
  8.50000000E-01  8.00000000E-01  8.50000000E-01  8.50000000E-01  8.50000000E-01
  8.00000000E-01  8.50000000E-01  8.50000000E-01  8.50000000E-01  8.00000000E-01
  8.50000000E-01  8.50000000E-01  8.50000000E-01  8.00000000E-01  8.50000000E-01
  8.50000000E-01  8.50000000E-01  8.00000000E-01  8.50000000E-01  8.50000000E-01
  8.50000000E-01  8.00000000E-01  8.50000000E-01  8.50000000E-01  8.50000000E-01
  8.00000000E-01  8.50000000E-01  8.50000000E-01  8.50000000E-01  8.00000000E-01
  8.50000000E-01  8.50000000E-01  8.50000000E-01  8.00000000E-01  8.50000000E-01
  8.50000000E-01  8.50000000E-01  8.00000000E-01  8.50000000E-01  8.50000000E-01
  8.50000000E-01  8.00000000E-01  8.50000000E-01  8.50000000E-01  8.50000000E-01
  8.00000000E-01  8.50000000E-01  8.50000000E-01  8.50000000E-01  8.00000000E-01
  8.50000000E-01  8.50000000E-01  8.50000000E-01  8.00000000E-01  8.50000000E-01
  8.50000000E-01  8.50000000E-01  8.00000000E-01  8.50000000E-01  8.50000000E-01
  8.50000000E-01  8.00000000E-01  8.50000000E-01  8.50000000E-01  8.50000000E-01
  8.00000000E-01  8.50000000E-01  8.50000000E-01  8.50000000E-01  8.00000000E-01
  8.50000000E-01  8.50000000E-01  8.50000000E-01  8.00000000E-01  8.50000000E-01
  8.50000000E-01  8.50000000E-01  8.00000000E-01  8.50000000E-01  8.50000000E-01
  8.50000000E-01  8.00000000E-01  8.50000000E-01  8.50000000E-01  8.50000000E-01
  8.00000000E-01  8.50000000E-01  8.50000000E-01  8.50000000E-01  8.00000000E-01
  8.50000000E-01  8.50000000E-01  8.50000000E-01  8.00000000E-01  8.50000000E-01
  8.50000000E-01  8.50000000E-01  8.00000000E-01  8.50000000E-01  8.50000000E-01
  8.50000000E-01  8.00000000E-01  8.50000000E-01  8.50000000E-01  8.50000000E-01
  8.00000000E-01  8.50000000E-01  8.50000000E-01  8.50000000E-01  8.00000000E-01
  8.50000000E-01  8.50000000E-01  8.50000000E-01  8.00000000E-01  8.50000000E-01
  8.50000000E-01  8.50000000E-01  8.00000000E-01  8.50000000E-01  8.50000000E-01
  8.50000000E-01  8.00000000E-01  8.50000000E-01  8.50000000E-01  8.50000000E-01
  8.00000000E-01  8.50000000E-01  8.50000000E-01  8.50000000E-01  8.00000000E-01
  8.50000000E-01  8.50000000E-01  8.50000000E-01  8.00000000E-01  8.50000000E-01
  8.50000000E-01  8.50000000E-01  8.00000000E-01  8.50000000E-01  8.50000000E-01
  8.50000000E-01  8.00000000E-01  8.50000000E-01  8.50000000E-01  8.50000000E-01
  8.00000000E-01  8.50000000E-01  8.50000000E-01  8.50000000E-01  8.00000000E-01
  8.50000000E-01  8.50000000E-01  8.50000000E-01  8.00000000E-01  8.50000000E-01
  8.50000000E-01  8.50000000E-01  8.00000000E-01  8.50000000E-01  8.50000000E-01
  8.50000000E-01  8.00000000E-01  8.50000000E-01  8.50000000E-01  8.50000000E-01
  8.00000000E-01  8.50000000E-01  8.50000000E-01  8.50000000E-01  8.00000000E-01
  8.50000000E-01  8.50000000E-01  8.50000000E-01  8.00000000E-01  8.50000000E-01
  8.50000000E-01  8.50000000E-01  8.00000000E-01  8.50000000E-01  8.50000000E-01
  8.50000000E-01  8.00000000E-01  8.50000000E-01  8.50000000E-01  8.50000000E-01
  8.00000000E-01  8.50000000E-01  8.50000000E-01  8.50000000E-01  8.00000000E-01
  8.50000000E-01  8.50000000E-01  8.50000000E-01  8.00000000E-01  8.50000000E-01
  8.50000000E-01  8.50000000E-01  8.00000000E-01  8.50000000E-01  8.50000000E-01
  8.50000000E-01  8.00000000E-01  8.50000000E-01  8.50000000E-01  8.50000000E-01
  8.00000000E-01  8.50000000E-01  8.50000000E-01  8.50000000E-01  8.00000000E-01
  8.50000000E-01  8.50000000E-01  8.50000000E-01  8.00000000E-01  8.50000000E-01
  8.50000000E-01  8.50000000E-01  8.00000000E-01  8.50000000E-01  8.50000000E-01
  8.50000000E-01  8.00000000E-01  8.50000000E-01  8.50000000E-01  8.50000000E-01
  8.00000000E-01  8.50000000E-01  8.50000000E-01  8.50000000E-01  8.00000000E-01
  8.50000000E-01  8.50000000E-01  8.50000000E-01  8.00000000E-01  8.50000000E-01
  8.50000000E-01  8.50000000E-01  8.00000000E-01  8.50000000E-01  8.50000000E-01
  8.50000000E-01  8.00000000E-01  8.50000000E-01  8.50000000E-01  8.50000000E-01
  8.00000000E-01  8.50000000E-01  8.50000000E-01  8.50000000E-01  8.00000000E-01
  8.50000000E-01  8.50000000E-01  8.50000000E-01  8.00000000E-01  8.50000000E-01
  8.50000000E-01  8.50000000E-01  8.00000000E-01  8.50000000E-01  8.50000000E-01
  8.50000000E-01  8.00000000E-01  8.50000000E-01  8.50000000E-01  8.50000000E-01
  8.00000000E-01  8.50000000E-01  8.50000000E-01  8.50000000E-01  8.00000000E-01
  8.50000000E-01  8.50000000E-01  8.50000000E-01  8.00000000E-01  8.50000000E-01
  8.50000000E-01  8.50000000E-01  8.00000000E-01  8.50000000E-01  8.50000000E-01
  8.50000000E-01  8.00000000E-01  8.50000000E-01  8.50000000E-01  8.50000000E-01
  8.00000000E-01  8.50000000E-01  8.50000000E-01  8.50000000E-01  8.00000000E-01
  8.50000000E-01  8.50000000E-01  8.50000000E-01  8.00000000E-01  8.50000000E-01
  8.50000000E-01  8.50000000E-01  8.00000000E-01  8.50000000E-01  8.50000000E-01
  8.50000000E-01  8.00000000E-01  8.50000000E-01  8.50000000E-01  8.50000000E-01
  8.00000000E-01  8.50000000E-01  8.50000000E-01  8.50000000E-01  8.00000000E-01
  8.50000000E-01  8.50000000E-01  8.50000000E-01  8.00000000E-01  8.50000000E-01
  8.50000000E-01  8.50000000E-01  8.00000000E-01  8.50000000E-01  8.50000000E-01
  8.50000000E-01  8.00000000E-01  8.50000000E-01  8.50000000E-01  8.50000000E-01
  8.00000000E-01  8.50000000E-01  8.50000000E-01  8.50000000E-01  8.00000000E-01
  8.50000000E-01  8.50000000E-01  8.50000000E-01  8.00000000E-01  8.50000000E-01
  8.50000000E-01  8.50000000E-01  8.00000000E-01  8.50000000E-01  8.50000000E-01
  8.50000000E-01  8.00000000E-01  8.50000000E-01  8.50000000E-01  8.50000000E-01
  8.00000000E-01  8.50000000E-01  8.50000000E-01  8.50000000E-01  8.00000000E-01
  8.50000000E-01  8.50000000E-01  8.50000000E-01  8.00000000E-01  8.50000000E-01
  8.50000000E-01  8.50000000E-01  8.00000000E-01  8.50000000E-01  8.50000000E-01
  8.50000000E-01  8.00000000E-01  8.50000000E-01  8.50000000E-01  8.50000000E-01
  8.00000000E-01  8.50000000E-01  8.50000000E-01  8.50000000E-01  8.00000000E-01
  8.50000000E-01  8.50000000E-01  8.50000000E-01  8.00000000E-01  8.50000000E-01
  8.50000000E-01  8.50000000E-01  8.00000000E-01  8.50000000E-01  8.50000000E-01
  8.50000000E-01  8.00000000E-01  8.50000000E-01  8.50000000E-01  8.50000000E-01
  8.00000000E-01  8.50000000E-01  8.50000000E-01  8.50000000E-01  8.00000000E-01
  8.50000000E-01  8.50000000E-01  8.50000000E-01  8.00000000E-01  8.50000000E-01
  8.50000000E-01  8.50000000E-01  8.00000000E-01  8.50000000E-01  8.50000000E-01
  8.50000000E-01  8.00000000E-01  8.50000000E-01  8.50000000E-01  8.50000000E-01
  8.00000000E-01  8.50000000E-01  8.50000000E-01  8.50000000E-01  8.00000000E-01
  8.50000000E-01  8.50000000E-01  8.50000000E-01  8.00000000E-01  8.50000000E-01
  8.50000000E-01  8.50000000E-01  8.00000000E-01  8.50000000E-01  8.50000000E-01
  8.50000000E-01  8.00000000E-01  8.50000000E-01  8.50000000E-01  8.50000000E-01
  8.00000000E-01  8.50000000E-01  8.50000000E-01  8.50000000E-01  8.00000000E-01
  8.50000000E-01  8.50000000E-01  8.50000000E-01  8.00000000E-01  8.50000000E-01
  8.50000000E-01  8.50000000E-01  8.00000000E-01  8.50000000E-01  8.50000000E-01
  8.50000000E-01  8.00000000E-01  8.50000000E-01  8.50000000E-01  8.50000000E-01
  8.00000000E-01  8.50000000E-01  8.50000000E-01  8.50000000E-01  8.00000000E-01
  8.50000000E-01  8.50000000E-01  8.50000000E-01  8.00000000E-01  8.50000000E-01
  8.50000000E-01  8.50000000E-01  8.00000000E-01  8.50000000E-01  8.50000000E-01
  8.50000000E-01  8.00000000E-01  8.50000000E-01  8.50000000E-01  8.50000000E-01
  8.00000000E-01  8.50000000E-01  8.50000000E-01  8.50000000E-01  8.00000000E-01
  8.50000000E-01  8.50000000E-01  8.50000000E-01  8.00000000E-01  8.50000000E-01
  8.50000000E-01  8.50000000E-01  8.00000000E-01  8.50000000E-01  8.50000000E-01
  8.50000000E-01  8.00000000E-01  8.50000000E-01  8.50000000E-01  8.50000000E-01
  8.00000000E-01  8.50000000E-01  8.50000000E-01  8.50000000E-01  8.00000000E-01
  8.50000000E-01  8.50000000E-01  8.50000000E-01  8.00000000E-01  8.50000000E-01
  8.50000000E-01  8.50000000E-01  8.00000000E-01  8.50000000E-01  8.50000000E-01
  8.50000000E-01  8.00000000E-01  8.50000000E-01  8.50000000E-01  8.50000000E-01
  8.00000000E-01  8.50000000E-01  8.50000000E-01  8.50000000E-01  8.00000000E-01
  8.50000000E-01  8.50000000E-01  8.50000000E-01  8.00000000E-01  8.50000000E-01
  8.50000000E-01  8.50000000E-01  8.00000000E-01  8.50000000E-01  8.50000000E-01
  8.50000000E-01  8.00000000E-01  8.50000000E-01  8.50000000E-01  8.50000000E-01
  8.00000000E-01  8.50000000E-01  8.50000000E-01  8.50000000E-01  8.00000000E-01
  8.50000000E-01  8.50000000E-01  8.50000000E-01  8.00000000E-01  8.50000000E-01
  8.50000000E-01  8.50000000E-01  8.00000000E-01  8.50000000E-01  8.50000000E-01
  8.50000000E-01  8.00000000E-01  8.50000000E-01  8.50000000E-01  8.50000000E-01
  8.00000000E-01  8.50000000E-01  8.50000000E-01  8.50000000E-01  8.00000000E-01
  8.50000000E-01  8.50000000E-01  8.50000000E-01  8.00000000E-01  8.50000000E-01
  8.50000000E-01  8.50000000E-01  8.00000000E-01  8.50000000E-01  8.50000000E-01
  8.50000000E-01  8.00000000E-01  8.50000000E-01  8.50000000E-01  8.50000000E-01
  8.00000000E-01  8.50000000E-01  8.50000000E-01  8.50000000E-01  8.00000000E-01
  8.50000000E-01  8.50000000E-01  8.50000000E-01  8.00000000E-01  8.50000000E-01
  8.50000000E-01  8.50000000E-01  8.00000000E-01  8.50000000E-01  8.50000000E-01
  8.50000000E-01  8.00000000E-01  8.50000000E-01  8.50000000E-01  8.50000000E-01
  8.00000000E-01  8.50000000E-01  8.50000000E-01  8.50000000E-01  8.00000000E-01
  8.50000000E-01  8.50000000E-01  8.50000000E-01  8.00000000E-01  8.50000000E-01
  8.50000000E-01  8.50000000E-01  8.00000000E-01  8.50000000E-01  8.50000000E-01
  8.50000000E-01  8.00000000E-01  8.50000000E-01  8.50000000E-01  8.50000000E-01
  8.00000000E-01  8.50000000E-01  8.50000000E-01  8.50000000E-01  8.00000000E-01
  8.50000000E-01  8.50000000E-01  8.50000000E-01  8.00000000E-01  8.50000000E-01
  8.50000000E-01  8.50000000E-01  8.00000000E-01  8.50000000E-01  8.50000000E-01
  8.50000000E-01  8.00000000E-01  8.50000000E-01  8.50000000E-01  8.50000000E-01
  8.00000000E-01  8.50000000E-01  8.50000000E-01  8.50000000E-01  8.00000000E-01
  8.50000000E-01  8.50000000E-01  8.50000000E-01  8.00000000E-01  8.50000000E-01
  8.50000000E-01  8.50000000E-01  8.00000000E-01  8.50000000E-01  8.50000000E-01
  8.50000000E-01  8.00000000E-01  8.50000000E-01  8.50000000E-01  8.50000000E-01
  8.00000000E-01  8.50000000E-01  8.50000000E-01  8.50000000E-01  8.00000000E-01
  8.50000000E-01  8.50000000E-01  8.50000000E-01  8.00000000E-01  8.50000000E-01
  8.50000000E-01  8.50000000E-01  8.00000000E-01  8.50000000E-01  8.50000000E-01
  8.50000000E-01  8.00000000E-01  8.50000000E-01  8.50000000E-01  8.50000000E-01
  8.00000000E-01  8.50000000E-01  8.50000000E-01  8.50000000E-01  8.00000000E-01
  8.50000000E-01  8.50000000E-01  8.50000000E-01  8.00000000E-01  8.50000000E-01
  8.50000000E-01  8.50000000E-01  8.00000000E-01  8.50000000E-01  8.50000000E-01
  8.50000000E-01  8.00000000E-01  8.50000000E-01  8.50000000E-01  8.50000000E-01
  8.00000000E-01  8.50000000E-01  8.50000000E-01  8.50000000E-01  8.00000000E-01
  8.50000000E-01  8.50000000E-01  8.50000000E-01  8.00000000E-01  8.50000000E-01
  8.50000000E-01  8.50000000E-01  8.00000000E-01  8.50000000E-01  8.50000000E-01
  8.50000000E-01  8.00000000E-01  8.50000000E-01  8.50000000E-01  8.50000000E-01
  8.00000000E-01  8.50000000E-01  8.50000000E-01  8.50000000E-01  8.00000000E-01
  8.50000000E-01  8.50000000E-01  8.50000000E-01  8.00000000E-01  8.50000000E-01
  8.50000000E-01  8.50000000E-01  8.00000000E-01  8.50000000E-01  8.50000000E-01
  8.50000000E-01  8.00000000E-01  8.50000000E-01  8.50000000E-01  8.50000000E-01
  8.00000000E-01  8.50000000E-01  8.50000000E-01  8.50000000E-01  8.00000000E-01
  8.50000000E-01  8.50000000E-01  8.50000000E-01  8.00000000E-01  8.50000000E-01
  8.50000000E-01  8.50000000E-01  8.00000000E-01  8.50000000E-01  8.50000000E-01
  8.50000000E-01  8.00000000E-01  8.50000000E-01  8.50000000E-01  8.50000000E-01
  8.00000000E-01  8.50000000E-01  8.50000000E-01  8.50000000E-01  8.00000000E-01
  8.50000000E-01  8.50000000E-01  8.50000000E-01  8.00000000E-01  8.50000000E-01
  8.50000000E-01  8.50000000E-01  8.00000000E-01  8.50000000E-01  8.50000000E-01
  8.50000000E-01  8.00000000E-01  8.50000000E-01  8.50000000E-01  8.50000000E-01
  8.00000000E-01  8.50000000E-01  8.50000000E-01  8.50000000E-01  8.00000000E-01
  8.50000000E-01  8.50000000E-01  8.50000000E-01  8.00000000E-01  8.50000000E-01
  8.50000000E-01  8.50000000E-01  8.00000000E-01  8.50000000E-01  8.50000000E-01
  8.50000000E-01  8.00000000E-01  8.50000000E-01  8.50000000E-01  8.50000000E-01
  8.00000000E-01  8.50000000E-01  8.50000000E-01  8.50000000E-01  8.00000000E-01
  8.50000000E-01  8.50000000E-01  8.50000000E-01  8.00000000E-01  8.50000000E-01
  8.50000000E-01  8.50000000E-01  8.00000000E-01  8.50000000E-01  8.50000000E-01
  8.50000000E-01  8.00000000E-01  8.50000000E-01  8.50000000E-01  8.50000000E-01
  8.00000000E-01  8.50000000E-01  8.50000000E-01  8.50000000E-01  8.00000000E-01
  8.50000000E-01  8.50000000E-01  8.50000000E-01  8.00000000E-01  8.50000000E-01
  8.50000000E-01  8.50000000E-01  8.00000000E-01  8.50000000E-01  8.50000000E-01
  8.50000000E-01  8.00000000E-01  8.50000000E-01  8.50000000E-01  8.50000000E-01
  8.00000000E-01  8.50000000E-01  8.50000000E-01  8.50000000E-01  8.00000000E-01
  8.50000000E-01  8.50000000E-01  8.50000000E-01  8.00000000E-01  8.50000000E-01
  8.50000000E-01  8.50000000E-01  8.00000000E-01  8.50000000E-01  8.50000000E-01
  8.50000000E-01  8.00000000E-01  8.50000000E-01  8.50000000E-01  8.50000000E-01
  8.00000000E-01  8.50000000E-01  8.50000000E-01  8.50000000E-01  8.00000000E-01
  8.50000000E-01  8.50000000E-01  8.50000000E-01  8.00000000E-01  8.50000000E-01
  8.50000000E-01  8.50000000E-01  8.00000000E-01  8.50000000E-01  8.50000000E-01
  8.50000000E-01  8.00000000E-01  8.50000000E-01  8.50000000E-01  8.50000000E-01
  8.00000000E-01  8.50000000E-01  8.50000000E-01  8.50000000E-01  8.00000000E-01
  8.50000000E-01  8.50000000E-01  8.50000000E-01  8.00000000E-01  8.50000000E-01
  8.50000000E-01  8.50000000E-01  8.00000000E-01  8.50000000E-01  8.50000000E-01
  8.50000000E-01  8.00000000E-01  8.50000000E-01  8.50000000E-01  8.50000000E-01
  8.00000000E-01  8.50000000E-01  8.50000000E-01  8.50000000E-01  8.00000000E-01
  8.50000000E-01  8.50000000E-01  8.50000000E-01  8.00000000E-01  8.50000000E-01
  8.50000000E-01  8.50000000E-01  8.00000000E-01  8.50000000E-01  8.50000000E-01
  8.50000000E-01  8.00000000E-01  8.50000000E-01  8.50000000E-01  8.50000000E-01
  8.00000000E-01  8.50000000E-01  8.50000000E-01  8.50000000E-01  8.00000000E-01
  8.50000000E-01  8.50000000E-01  8.50000000E-01  8.00000000E-01  8.50000000E-01
  8.50000000E-01  8.50000000E-01  8.00000000E-01  8.50000000E-01  8.50000000E-01
  8.50000000E-01  8.00000000E-01  8.50000000E-01  8.50000000E-01  8.50000000E-01
  8.00000000E-01  8.50000000E-01  8.50000000E-01  8.50000000E-01  8.00000000E-01
  8.50000000E-01  8.50000000E-01  8.50000000E-01  8.00000000E-01  8.50000000E-01
  8.50000000E-01  8.50000000E-01  8.00000000E-01  8.50000000E-01  8.50000000E-01
  8.50000000E-01  8.00000000E-01  8.50000000E-01  8.50000000E-01  8.50000000E-01
  8.00000000E-01  8.50000000E-01  8.50000000E-01  8.50000000E-01  8.00000000E-01
  8.50000000E-01  8.50000000E-01  8.50000000E-01  8.00000000E-01  8.50000000E-01
  8.50000000E-01  8.50000000E-01  8.00000000E-01  8.50000000E-01  8.50000000E-01
  8.50000000E-01  8.00000000E-01  8.50000000E-01  8.50000000E-01  8.50000000E-01
  8.00000000E-01  8.50000000E-01  8.50000000E-01  8.50000000E-01  8.00000000E-01
  8.50000000E-01  8.50000000E-01  8.50000000E-01  8.00000000E-01  8.50000000E-01
  8.50000000E-01  8.50000000E-01  8.00000000E-01  8.50000000E-01  8.50000000E-01
  8.50000000E-01  8.00000000E-01  8.50000000E-01  8.50000000E-01  8.50000000E-01
  8.00000000E-01  8.50000000E-01  8.50000000E-01  8.50000000E-01  8.00000000E-01
  8.50000000E-01  8.50000000E-01  8.50000000E-01  8.00000000E-01  8.50000000E-01
  8.50000000E-01  8.50000000E-01  8.00000000E-01  8.50000000E-01  8.50000000E-01
  8.50000000E-01  8.00000000E-01  8.50000000E-01  8.50000000E-01  8.50000000E-01
  8.00000000E-01  8.50000000E-01  8.50000000E-01  8.50000000E-01  8.00000000E-01
  8.50000000E-01  8.50000000E-01  8.50000000E-01  8.00000000E-01  8.50000000E-01
  8.50000000E-01  8.50000000E-01  8.00000000E-01  8.50000000E-01  8.50000000E-01
  8.50000000E-01  8.00000000E-01  8.50000000E-01  8.50000000E-01  8.50000000E-01
  8.00000000E-01  8.50000000E-01  8.50000000E-01  8.50000000E-01  8.00000000E-01
  8.50000000E-01  8.50000000E-01  8.50000000E-01  8.00000000E-01  8.50000000E-01
  8.50000000E-01  8.50000000E-01  8.00000000E-01  8.50000000E-01  8.50000000E-01
  8.50000000E-01  8.00000000E-01  8.50000000E-01  8.50000000E-01  8.50000000E-01
  8.00000000E-01  8.50000000E-01  8.50000000E-01  8.50000000E-01  8.00000000E-01
  8.50000000E-01  8.50000000E-01  8.50000000E-01  8.00000000E-01  8.50000000E-01
  8.50000000E-01  8.50000000E-01  8.00000000E-01  8.50000000E-01  8.50000000E-01
  8.50000000E-01  8.00000000E-01  8.50000000E-01  8.50000000E-01  8.50000000E-01
  8.00000000E-01  8.50000000E-01  8.50000000E-01  8.50000000E-01  8.00000000E-01
  8.50000000E-01  8.50000000E-01  8.50000000E-01  8.00000000E-01  8.50000000E-01
  8.50000000E-01  8.50000000E-01  8.00000000E-01  8.50000000E-01  8.50000000E-01
  8.50000000E-01  8.00000000E-01  8.50000000E-01  8.50000000E-01  8.50000000E-01
  8.00000000E-01  8.50000000E-01  8.50000000E-01  8.50000000E-01  8.00000000E-01
  8.50000000E-01  8.50000000E-01  8.50000000E-01  8.00000000E-01  8.50000000E-01
  8.50000000E-01  8.50000000E-01  8.00000000E-01  8.50000000E-01  8.50000000E-01
  8.50000000E-01  8.00000000E-01  8.50000000E-01  8.50000000E-01  8.50000000E-01
  8.00000000E-01  8.50000000E-01  8.50000000E-01  8.50000000E-01  8.00000000E-01
  8.50000000E-01  8.50000000E-01  8.50000000E-01  8.00000000E-01  8.50000000E-01
  8.50000000E-01  8.50000000E-01  8.00000000E-01  8.50000000E-01  8.50000000E-01
  8.50000000E-01  8.00000000E-01  8.50000000E-01  8.50000000E-01  8.50000000E-01
  8.00000000E-01  8.50000000E-01  8.50000000E-01  8.50000000E-01  8.00000000E-01
  8.50000000E-01  8.50000000E-01  8.50000000E-01  8.00000000E-01  8.50000000E-01
  8.50000000E-01  8.50000000E-01  8.00000000E-01  8.50000000E-01  8.50000000E-01
  8.50000000E-01  8.00000000E-01  8.50000000E-01  8.50000000E-01  8.50000000E-01
  8.00000000E-01  8.50000000E-01  8.50000000E-01  8.50000000E-01  8.00000000E-01
  8.50000000E-01  8.50000000E-01  8.50000000E-01  8.00000000E-01  8.50000000E-01
  8.50000000E-01  8.50000000E-01  8.00000000E-01  8.50000000E-01  8.50000000E-01
  8.50000000E-01  8.00000000E-01  8.50000000E-01  8.50000000E-01  8.50000000E-01
  8.00000000E-01  8.50000000E-01  8.50000000E-01  8.50000000E-01  8.00000000E-01
  8.50000000E-01  8.50000000E-01  8.50000000E-01  8.00000000E-01  8.50000000E-01
  8.50000000E-01  8.50000000E-01  8.00000000E-01  8.50000000E-01  8.50000000E-01
  8.50000000E-01  8.00000000E-01  8.50000000E-01  8.50000000E-01  8.50000000E-01
  8.00000000E-01  8.50000000E-01  8.50000000E-01  8.50000000E-01  8.00000000E-01
  8.50000000E-01  8.50000000E-01  8.50000000E-01  8.00000000E-01  8.50000000E-01
  8.50000000E-01  8.50000000E-01  8.00000000E-01  8.50000000E-01  8.50000000E-01
  8.50000000E-01  8.00000000E-01  8.50000000E-01  8.50000000E-01  8.50000000E-01
  8.00000000E-01  8.50000000E-01  8.50000000E-01  8.50000000E-01  8.00000000E-01
  8.50000000E-01  8.50000000E-01  8.50000000E-01  8.00000000E-01  8.50000000E-01
  8.50000000E-01  8.50000000E-01  8.00000000E-01  8.50000000E-01  8.50000000E-01
  8.50000000E-01  8.00000000E-01  8.50000000E-01  8.50000000E-01  8.50000000E-01
  8.00000000E-01  8.50000000E-01  8.50000000E-01  8.50000000E-01  8.00000000E-01
  8.50000000E-01  8.50000000E-01  8.50000000E-01  8.00000000E-01  8.50000000E-01
  8.50000000E-01  8.50000000E-01  8.00000000E-01  8.50000000E-01  8.50000000E-01
  8.50000000E-01  8.00000000E-01  8.50000000E-01  8.50000000E-01  8.50000000E-01
  8.00000000E-01  8.50000000E-01  8.50000000E-01  8.50000000E-01  8.00000000E-01
  8.50000000E-01  8.50000000E-01  8.50000000E-01  8.00000000E-01  8.50000000E-01
  8.50000000E-01  8.50000000E-01  8.00000000E-01  8.50000000E-01  8.50000000E-01
  8.50000000E-01  8.00000000E-01  8.50000000E-01  8.50000000E-01  8.50000000E-01
  8.00000000E-01  8.50000000E-01  8.50000000E-01  8.50000000E-01  8.00000000E-01
  8.50000000E-01  8.50000000E-01  8.50000000E-01  8.00000000E-01  8.50000000E-01
  8.50000000E-01  8.50000000E-01  8.00000000E-01  8.50000000E-01  8.50000000E-01
  8.50000000E-01  8.00000000E-01  8.50000000E-01  8.50000000E-01  8.50000000E-01
  8.00000000E-01  8.50000000E-01  8.50000000E-01  8.50000000E-01  8.00000000E-01
  8.50000000E-01  8.50000000E-01  8.50000000E-01  8.00000000E-01  8.50000000E-01
  8.50000000E-01  8.50000000E-01  8.00000000E-01  8.50000000E-01  8.50000000E-01
  8.50000000E-01  8.00000000E-01  8.50000000E-01  8.50000000E-01  8.50000000E-01
  8.00000000E-01  8.50000000E-01  8.50000000E-01  8.50000000E-01  8.00000000E-01
  8.50000000E-01  8.50000000E-01  8.50000000E-01  8.00000000E-01  8.50000000E-01
  8.50000000E-01  8.50000000E-01  8.00000000E-01  8.50000000E-01  8.50000000E-01
  8.50000000E-01  8.00000000E-01  8.50000000E-01  8.50000000E-01  8.50000000E-01
  8.00000000E-01  8.50000000E-01  8.50000000E-01  8.50000000E-01  8.00000000E-01
  8.50000000E-01  8.50000000E-01  8.50000000E-01  8.00000000E-01  8.50000000E-01
  8.50000000E-01  8.50000000E-01  8.00000000E-01  8.50000000E-01  8.50000000E-01
  8.50000000E-01  8.00000000E-01  8.50000000E-01  8.50000000E-01  8.50000000E-01
  8.00000000E-01  8.50000000E-01  8.50000000E-01  8.50000000E-01  8.00000000E-01
  8.50000000E-01  8.50000000E-01  8.50000000E-01  8.00000000E-01  8.50000000E-01
  8.50000000E-01  8.50000000E-01  8.00000000E-01  8.50000000E-01  8.50000000E-01
  8.50000000E-01  8.00000000E-01  8.50000000E-01  8.50000000E-01  8.50000000E-01
  8.00000000E-01  8.50000000E-01  8.50000000E-01  8.50000000E-01  8.00000000E-01
  8.50000000E-01  8.50000000E-01  8.50000000E-01  8.00000000E-01  8.50000000E-01
  8.50000000E-01  8.50000000E-01  8.00000000E-01  8.50000000E-01  8.50000000E-01
  8.50000000E-01  8.00000000E-01  8.50000000E-01  8.50000000E-01  8.50000000E-01
  8.00000000E-01  8.50000000E-01  8.50000000E-01  8.50000000E-01  8.00000000E-01
  8.50000000E-01  8.50000000E-01  8.50000000E-01  8.00000000E-01  8.50000000E-01
  8.50000000E-01  8.50000000E-01  8.00000000E-01  8.50000000E-01  8.50000000E-01
  8.50000000E-01  8.00000000E-01  8.50000000E-01  8.50000000E-01  8.50000000E-01
  8.00000000E-01  8.50000000E-01  8.50000000E-01  8.50000000E-01  8.00000000E-01
  8.50000000E-01  8.50000000E-01  8.50000000E-01  8.00000000E-01  8.50000000E-01
  8.50000000E-01  8.50000000E-01  8.00000000E-01  8.50000000E-01  8.50000000E-01
  8.50000000E-01  8.00000000E-01  8.50000000E-01  8.50000000E-01  8.50000000E-01
  8.00000000E-01  8.50000000E-01  8.50000000E-01  8.50000000E-01  8.00000000E-01
  8.50000000E-01  8.50000000E-01  8.50000000E-01  8.00000000E-01  8.50000000E-01
  8.50000000E-01  8.50000000E-01  8.00000000E-01  8.50000000E-01  8.50000000E-01
  8.50000000E-01  8.00000000E-01  8.50000000E-01  8.50000000E-01  8.50000000E-01
  8.00000000E-01  8.50000000E-01  8.50000000E-01  8.50000000E-01  8.00000000E-01
  8.50000000E-01  8.50000000E-01  8.50000000E-01  8.00000000E-01  8.50000000E-01
  8.50000000E-01  8.50000000E-01  8.00000000E-01  8.50000000E-01  8.50000000E-01
  8.50000000E-01  8.00000000E-01  8.50000000E-01  8.50000000E-01  8.50000000E-01
  8.00000000E-01  8.50000000E-01  8.50000000E-01  8.50000000E-01  8.00000000E-01
%FLAG IPOL                                                                      
%FORMAT(1I8)                                                                    
       0
