default_name
 52877
   0.9820000 -14.7250000 -20.3460000   1.8640000 -15.0890000 -20.2430000
   2.0800000 -16.1140000 -19.2780000   1.4600000 -16.9480000 -19.6060000
   1.7930000 -15.8240000 -18.2670000   3.5450000 -16.5470000 -19.2790000
   3.6120000 -17.4770000 -18.7140000   3.9750000 -16.9000000 -20.6060000
   5.3000000 -16.4240000 -20.8600000   5.8640000 -17.2520000 -21.2890000
   5.3260000 -15.3830000 -21.9350000   4.2400000 -14.8030000 -22.4860000
   3.2380000 -15.0660000 -22.1820000   4.5730000 -13.8880000 -23.4320000
   5.9150000 -13.8560000 -23.5020000   6.9250000 -13.1020000 -24.2950000
   6.5780000 -12.2550000 -25.1470000   8.2230000 -13.3570000 -24.0700000
   8.9300000 -12.8750000 -24.5880000   8.6300000 -14.2620000 -23.1600000
   9.9610000 -14.4520000 -23.0080000  10.7030000 -13.9920000 -23.5170000
  10.2430000 -15.1420000 -22.3260000   7.7630000 -14.9920000 -22.3990000
   6.4140000 -14.8400000 -22.5180000   4.5060000 -15.4890000 -18.7320000
   4.5410000 -14.4500000 -18.4050000   5.7560000 -15.8090000 -19.5420000
   6.1890000 -14.8180000 -19.4060000   6.5740000 -16.7820000 -18.8790000
   7.4460000 -16.7340000 -19.2780000   4.6990000 -15.7070000 -17.3370000
   4.5910000 -14.1460000 -17.6170000   4.2450000 -14.7070000 -16.2970000
   3.6660000 -13.1770000 -18.2360000   5.9650000 -13.3600000 -17.3940000
   7.1350000 -14.0110000 -16.9080000   7.0120000 -15.0880000 -17.0210000
   7.2720000 -13.7700000 -15.8540000   8.3600000 -13.5640000 -17.6860000
   9.1960000 -14.2140000 -17.4300000   8.1650000 -13.7650000 -19.1120000
   8.8270000 -12.7410000 -19.8350000   9.4810000 -13.1960000 -20.5790000
   7.8530000 -12.0010000 -20.6370000   6.4840000 -12.0560000 -20.5270000
   6.0270000 -12.6950000 -19.7860000   5.8540000 -11.2930000 -21.3730000
   6.8680000 -10.6850000 -22.0980000   6.7980000  -9.7460000 -23.1640000
   5.7960000  -9.2510000 -23.6890000   8.0600000  -9.3820000 -23.6300000
   8.1100000  -8.7330000 -24.3890000   9.2460000  -9.8560000 -23.1240000
  10.3520000  -9.3830000 -23.7030000  10.4040000  -8.7300000 -24.4720000
  11.2310000  -9.7300000 -23.3470000   9.3310000 -10.7320000 -22.1280000
   8.1080000 -11.1060000 -21.6590000   8.6950000 -12.0830000 -17.5650000
   8.2160000 -11.1440000 -17.2870000   9.5490000 -11.8690000 -18.8090000
   9.5220000 -10.7790000 -18.8040000  10.8820000 -12.3080000 -18.6360000
  11.3920000 -11.9520000 -19.3670000   9.4030000 -11.7950000 -16.3600000
   9.2380000 -10.3390000 -15.6970000   9.8460000 -10.3860000 -14.3500000
   7.8420000  -9.8900000 -15.8570000  10.1500000  -9.3930000 -16.6120000
  11.5570000  -9.6290000 -16.7730000  11.7410000 -10.6670000 -17.0500000
  12.0590000  -9.4100000 -15.8310000  12.1080000  -8.7200000 -17.8540000
  13.1790000  -8.8840000 -17.9720000  11.5400000  -9.0850000 -19.1400000
  11.3370000  -7.9080000 -19.9160000  11.7720000  -8.0070000 -20.9110000
   9.9120000  -7.7080000 -20.1970000   8.8370000  -8.1900000 -19.4930000
   9.0050000  -8.7580000 -18.5900000   7.6690000  -7.8450000 -19.9800000
   7.9910000  -7.0740000 -21.0870000   7.2030000  -6.3920000 -22.0490000
   5.8660000  -6.3830000 -22.0410000   5.3600000  -5.8780000 -22.7550000
   5.3620000  -6.8810000 -21.3210000   7.8440000  -5.7120000 -23.0270000
   9.1850000  -5.7070000 -23.0410000   9.7210000  -5.1700000 -23.8090000
  10.0350000  -6.3030000 -22.1960000   9.3720000  -6.9750000 -21.2310000
  11.7350000  -7.2470000 -17.7030000  11.0030000  -6.6200000 -17.1950000
  11.9350000  -6.7430000 -19.1270000  11.4370000  -5.7820000 -19.0020000
  13.2950000  -6.5290000 -19.4670000  13.3040000  -6.0320000 -20.2880000
  12.5640000  -6.5870000 -16.7620000  11.9700000  -5.4470000 -15.8030000
  13.0390000  -5.1360000 -14.8300000  10.6320000  -5.8350000 -15.3170000
  11.7670000  -4.1960000 -16.7770000  12.8670000  -3.4890000 -17.3540000
  13.6300000  -4.1900000 -17.6900000  13.2900000  -2.8270000 -16.5990000
  12.3950000  -2.6610000 -18.5350000  13.2570000  -2.2800000 -19.0830000
  11.6950000  -3.5000000 -19.4940000  10.6420000  -2.7680000 -20.0930000
  10.6960000  -2.8400000 -21.1790000   9.2970000  -3.3980000 -19.7750000
   9.1660000  -4.2740000 -18.7010000  10.0350000  -4.4610000 -18.0880000
   8.0010000  -4.8530000 -18.3640000   7.9290000  -5.5440000 -17.5240000
   6.8170000  -4.5590000 -19.1400000   5.7030000  -5.0240000 -18.9380000
   7.0090000  -3.6800000 -20.1940000   6.1300000  -3.4400000 -20.7930000
   8.1930000  -3.0770000 -20.5600000   8.2390000  -2.3170000 -21.5080000
  11.3690000  -1.5870000 -18.1970000  10.6540000  -1.3160000 -17.4200000
  10.7500000  -1.3340000 -19.5700000   9.8880000  -0.7710000 -19.2110000
  11.5410000  -0.5040000 -20.4080000  10.9830000  -0.2320000 -21.1410000
  11.9690000  -0.4300000 -17.6340000  11.1550000   0.5000000 -16.6100000
  12.1220000   1.3900000 -15.9290000  10.2460000  -0.3430000 -15.7980000
  10.2900000   1.4010000 -17.5970000  10.9050000   2.4100000 -18.3830000
  11.7740000   2.0420000 -18.9280000  11.2150000   3.1960000 -17.6950000
   9.9050000   2.9750000 -19.3650000  10.3950000   3.6130000 -20.1010000
   9.3380000   1.8910000 -20.1440000   8.0110000   2.2230000 -20.5240000
   7.9320000   2.1660000 -21.6100000   7.0530000   1.1600000 -20.0400000
   7.4620000   0.2520000 -19.0920000   8.4660000   0.3090000 -18.6990000
   6.6400000  -0.7090000 -18.6400000   7.0030000  -1.4020000 -17.8810000
   5.3170000  -0.7650000 -19.1800000   4.4530000  -1.7030000 -18.7720000
   3.5300000  -1.7020000 -19.1830000   4.7290000  -2.3820000 -18.0770000
   4.9050000   0.1180000 -20.0980000   5.7390000   1.0950000 -20.5580000
   5.3580000   1.9120000 -21.4110000   8.6620000   3.5890000 -18.7450000
   8.0630000   3.4970000 -17.8390000   7.7420000   3.6140000 -19.9630000
   6.8250000   3.9060000 -19.4500000   8.0800000   4.5980000 -20.9200000
   7.3470000   4.6520000 -21.5380000   8.9010000   4.8670000 -18.1750000
   7.9480000   5.4030000 -16.9970000   8.4690000   6.7190000 -16.5650000
   7.7700000   4.3130000 -16.0130000   6.5500000   5.6330000 -17.7440000
   6.4080000   6.6410000 -18.7520000   7.1070000   6.4700000 -19.5710000
   6.6170000   7.6070000 -18.2930000   4.9940000   6.6440000 -19.2960000
   4.8980000   7.3440000 -20.1260000   4.6920000   5.3540000 -19.8740000
   3.3170000   5.0470000 -19.6850000   2.7960000   4.8640000 -20.6250000
   3.1790000   3.7730000 -18.9780000   4.1310000   3.1460000 -18.2190000
   5.0850000   3.6240000 -18.0530000   3.7410000   2.0080000 -17.7040000
   2.4380000   1.8840000 -18.1540000   1.4710000   0.8820000 -17.9580000
   1.7070000  -0.2020000 -17.2230000   0.9860000  -0.9000000 -17.1060000
   2.6070000  -0.3270000 -16.7820000   0.2620000   1.0460000 -18.5420000
   0.0360000   2.1510000 -19.2780000  -0.9210000   2.3170000 -19.7490000
   0.8760000   3.1580000 -19.5400000   2.0690000   2.9590000 -18.9450000
   3.9180000   6.8140000 -18.2360000   3.8060000   6.7120000 -17.1570000
   2.6990000   6.2130000 -18.9340000   2.0660000   6.1290000 -18.0510000
   2.0950000   7.0880000 -19.8640000   1.2420000   6.7100000 -20.0920000
   3.7520000   8.1870000 -17.9060000   3.3250000   8.6090000 -16.4180000
   3.3750000  10.0930000 -16.3550000   4.1450000   7.8250000 -15.4630000
   1.7950000   8.1450000 -16.3200000   0.8000000   8.7000000 -17.1890000
   1.2130000   8.8340000 -18.1890000   0.5110000   9.6690000 -16.7830000
  -0.4270000   7.8060000 -17.2700000  -1.0660000   8.1420000 -18.0860000
  -0.0620000   6.4460000 -17.6300000  -1.0250000   5.5450000 -17.1180000
  -1.5420000   5.0100000 -17.9150000  -0.3360000   4.4410000 -16.3610000
   0.9500000   4.6360000 -15.8840000   1.4140000   5.6000000 -16.0320000
   1.6210000   3.6960000 -15.2020000   2.6310000   3.8790000 -14.8340000
   0.9980000   2.4160000 -14.9480000   1.5150000   1.4780000 -14.3420000
  -0.2890000   2.2890000 -15.4520000  -0.7870000   1.3380000 -15.2630000
  -1.0030000   3.2340000 -16.1530000  -2.1410000   3.0070000 -16.5440000
  -1.1650000   7.6100000 -15.9570000  -1.0000000   7.6580000 -14.8810000
  -2.0020000   6.3740000 -16.2900000  -2.3080000   6.1520000 -15.2680000
  -3.1460000   6.6510000 -17.0740000  -3.7010000   5.8680000 -17.0470000
  -1.9250000   8.7730000 -15.6580000  -2.1380000   9.2750000 -14.1510000
  -3.0070000  10.4710000 -14.2070000  -0.8380000   9.3820000 -13.4600000
  -2.9650000   8.0650000 -13.5040000  -4.3370000   7.8290000 -13.8310000
  -4.4850000   7.7450000 -14.9080000  -4.9080000   8.6760000 -13.4510000
  -4.8250000   6.5580000 -13.1600000  -5.8610000   6.3680000 -13.4390000
  -4.0970000   5.4220000 -13.6760000  -4.1930000   4.3530000 -12.7410000
  -4.7850000   3.5440000 -13.1690000  -2.8950000   3.7210000 -12.5010000
  -1.6700000   4.3280000 -12.4920000  -1.5910000   5.3940000 -12.6450000
  -0.6790000   3.5120000 -12.2250000  -1.2890000   2.2860000 -12.0310000
  -0.7870000   1.0030000 -11.7100000   0.5110000   0.7260000 -11.5270000
   0.7990000  -0.2150000 -11.2990000   1.2010000   1.4580000 -11.6170000
  -1.6750000  -0.0020000 -11.5860000  -2.9740000   0.2440000 -11.7770000
  -3.7030000  -0.5480000 -11.6950000  -3.5640000   1.4030000 -12.0770000
  -2.6610000   2.3980000 -12.1950000  -4.5530000   6.4420000 -11.6660000
  -3.8720000   6.8460000 -10.9170000  -4.7270000   4.9450000 -11.4390000
  -4.2020000   4.9220000 -10.4840000  -6.0600000   4.5460000 -11.2490000
  -6.0380000   3.6540000 -10.8950000  -5.4630000   7.2090000 -10.9000000
  -4.9700000   8.4680000 -10.0430000  -6.0340000   8.7610000  -9.0550000
  -4.5300000   9.5220000 -10.9790000  -3.6630000   7.9330000  -9.3090000
  -3.1620000   8.4340000  -8.0730000  -3.9990000   8.6270000  -7.4020000
  -2.5830000   9.3480000  -8.2020000  -2.2700000   7.3570000  -7.4650000
  -1.5360000   7.8250000  -6.8090000  -3.0640000   6.5170000  -6.5820000
  -3.0070000   5.1690000  -7.0100000  -2.3260000   4.5850000  -6.3910000
  -4.3390000   4.4970000  -6.7780000  -5.4950000   5.0880000  -7.2620000
  -5.4050000   6.0000000  -7.8340000  -6.7130000   4.5490000  -7.0950000
  -7.6090000   5.0350000  -7.4800000  -6.8390000   3.2950000  -6.3860000
  -7.8890000   2.7040000  -6.1680000  -5.6460000   2.7550000  -5.9330000
  -5.7130000   1.8060000  -5.4010000  -4.3880000   3.2920000  -6.0860000
  -3.4100000   2.7220000  -5.6330000  -1.6210000   6.4150000  -8.4830000
  -1.1090000   6.4630000  -9.4440000  -2.5780000   5.2240000  -8.4740000
  -3.2120000   5.5870000  -9.2830000  -1.9700000   4.0100000  -8.8610000
  -2.6780000   3.3870000  -9.0440000  -0.3080000   6.0150000  -8.0880000
   1.0260000   6.8890000  -8.2690000   0.8620000   7.9330000  -9.2980000
   2.1330000   5.9160000  -8.4090000   1.1330000   7.6400000  -6.8650000
   1.1780000   6.9170000  -5.6400000   2.1190000   6.3740000  -5.5590000
   0.3490000   6.2090000  -5.6330000   1.0410000   7.8590000  -4.4560000
   1.8690000   8.5660000  -4.4170000  -0.1360000   8.6870000  -4.6160000
  -0.7800000   8.8990000  -3.3730000  -0.7950000   9.9510000  -3.0880000
  -2.2100000   8.5740000  -3.5150000  -3.1800000   9.5060000  -3.7360000
  -2.8990000  10.5420000  -3.8580000  -4.3900000   9.0200000  -3.8400000
  -4.2130000   7.6620000  -3.6780000  -5.1320000   6.5870000  -3.6840000
  -6.4440000   6.7620000  -3.8670000  -7.0650000   5.9650000  -3.8640000
  -6.8150000   7.6910000  -4.0080000  -4.6520000   5.3360000  -3.4930000
  -3.3320000   5.1770000  -3.3090000  -2.9090000   4.1960000  -3.1510000
  -2.3810000   6.1120000  -3.2880000  -2.8770000   7.3550000  -3.4760000
   0.8090000   7.1420000  -3.1420000   0.5830000   6.1250000  -2.8200000
   0.0010000   8.1330000  -2.3050000  -0.4350000   7.3860000  -1.6410000
   0.8020000   9.0200000  -1.5530000   0.2280000   9.4350000  -0.9050000
   2.0540000   6.7680000  -2.5530000   2.4730000   5.2200000  -2.5330000
   3.2300000   4.9660000  -1.2930000   3.0800000   4.8710000  -3.8370000
   1.0630000   4.4640000  -2.4600000   0.3950000   4.2130000  -1.2440000
  -0.4740000   4.8690000  -1.1830000   1.0730000   4.4320000  -0.4190000
  -0.0610000   2.7730000  -1.1450000  -1.1440000   2.7170000  -1.2540000
   0.4560000   1.9680000  -2.2340000   0.7960000   0.6700000  -1.7600000
   0.2880000  -0.1300000  -2.2980000   2.2180000   0.4010000  -2.0320000
   3.1220000   1.2800000  -2.5710000   2.8210000   2.2950000  -2.7850000
   4.3290000   0.7850000  -2.7210000   4.2160000  -0.5140000  -2.2490000
   5.1490000  -1.5770000  -2.1350000   6.4280000  -1.4730000  -2.5120000
   7.0510000  -2.2620000  -2.4090000   6.7710000  -0.6060000  -2.9000000
   4.7210000  -2.7570000  -1.6230000   3.4380000  -2.8570000  -1.2470000
   3.0610000  -3.7780000  -0.8270000   2.4720000  -1.9330000  -1.3110000
   2.9220000  -0.7690000  -1.8220000   0.4420000   2.0860000   0.1050000
   1.1630000   2.2170000   0.9120000   0.3830000   0.6180000  -0.2880000
   1.0120000   0.2300000   0.5130000  -0.9200000   0.0880000  -0.1610000
  -0.8420000  -0.8670000  -0.2220000  -0.4460000   2.3850000   1.1600000
   0.0560000   3.2620000   2.3940000   1.5040000   3.5320000   2.2240000
  -0.4250000   2.6030000   3.6270000  -0.7660000   4.6160000   2.2010000
  -0.1380000   5.8510000   1.8660000   0.6830000   5.7060000   1.1640000
   0.2420000   6.3060000   2.7800000  -1.1690000   6.7710000   1.2430000
  -0.6950000   7.6440000   0.7940000  -1.8320000   6.1040000   0.1320000
  -3.2030000   6.4660000   0.0960000  -3.4870000   6.8160000  -0.8960000
  -4.0950000   5.2570000   0.2990000  -3.5630000   4.0410000   0.7120000
  -2.5040000   4.0000000   0.9220000  -4.3050000   2.9370000   0.9110000
  -3.8580000   1.9980000   1.2380000  -5.7330000   3.0010000   0.6920000
  -6.5320000   2.0790000   0.8410000  -6.1970000   4.2380000   0.2830000
  -7.2710000   4.3100000   0.1090000  -5.4570000   5.3780000   0.0700000
  -5.9900000   6.4060000  -0.2980000  -2.3150000   7.1200000   2.1740000
  -2.7840000   6.7910000   3.1010000  -3.3940000   7.5320000   1.1770000
  -4.2160000   7.5150000   1.8930000  -3.2440000   8.8450000   0.6610000
  -4.0720000   9.0750000   0.2330000  -1.9540000   8.1560000   3.0630000
  -2.4760000   8.1200000   4.5790000  -1.9330000   9.3200000   5.2590000
  -2.1890000   6.7820000   5.1350000  -4.0580000   8.3120000   4.4330000
  -4.5860000   9.6140000   4.1780000  -3.9540000  10.0960000   3.4320000
  -4.5640000  10.1930000   5.1010000  -6.0100000   9.5530000   3.6610000
  -6.2510000  10.4930000   3.1650000  -6.1290000   8.5480000   2.6140000
  -7.3700000   7.8700000   2.7350000  -7.8220000   7.8400000   1.7440000
  -7.1830000   6.4030000   3.0890000  -5.9560000   5.9170000   3.4610000
  -5.1090000   6.5860000   3.4950000  -5.7800000   4.6260000   3.7860000
  -4.7870000   4.2800000   4.0710000  -6.9220000   3.7660000   3.7340000
  -6.8090000   2.4690000   4.0420000  -7.6420000   1.9000000   3.9910000
  -5.9150000   2.0860000   4.3140000  -8.1260000   4.2230000   3.3760000
  -8.2900000   5.5330000   3.0500000  -9.3960000   5.9750000   2.7170000
  -7.0460000   9.1470000   4.6970000  -7.1280000   8.6740000   5.6750000
  -8.1670000   8.6410000   3.7910000  -8.7570000   8.1720000   4.5790000
  -8.9270000   9.6710000   3.1830000  -9.7150000   9.2610000   2.8190000
  -7.4370000  10.2650000   5.4840000  -7.7170000  10.1300000   7.0600000
  -7.4200000  11.4440000   7.6740000  -7.0390000   8.9220000   7.5810000
  -9.2950000   9.8850000   7.1090000 -10.2060000  10.8990000   6.6920000
  -9.9190000  11.2430000   5.6980000 -10.1550000  11.7320000   7.3930000
 -11.6290000  10.3720000   6.6460000 -12.2990000  11.1770000   6.3450000
 -11.7410000   9.3890000   5.5830000 -12.5460000   8.3040000   6.0140000
 -13.2380000   8.0410000   5.2140000 -11.7190000   7.1010000   6.1670000
 -10.3430000   7.0270000   6.2110000  -9.7530000   7.9280000   6.1260000
  -9.8780000   5.8160000   6.3560000 -11.0220000   5.0280000   6.4130000
 -11.1560000   3.6230000   6.5620000 -10.2530000   2.7820000   6.6780000
 -12.4960000   3.2200000   6.5690000 -12.6930000   2.2440000   6.6640000
 -13.5700000   4.0750000   6.4500000 -14.7870000   3.5170000   6.4780000
 -15.0030000   2.5340000   6.5660000 -15.5730000   4.1440000   6.3820000
 -13.4580000   5.3920000   6.3090000 -12.1620000   5.8020000   6.3010000
 -12.1060000   9.6320000   7.8920000 -11.6880000   9.1460000   8.7730000
 -13.2140000   8.7600000   7.3080000 -13.3750000   8.1190000   8.1750000
 -14.4020000   9.4770000   7.0240000 -15.0860000   8.8270000   6.8440000
 -12.5740000  10.5290000   8.8960000 -12.4220000  10.1660000  10.4530000
 -12.8350000  11.3670000  11.2170000 -11.0800000   9.5810000  10.6750000
 -13.5210000   9.0150000  10.6810000 -14.9250000   9.3160000  10.6790000
 -15.1450000   9.9700000   9.8350000 -15.1490000   9.8370000  11.6100000
 -15.7900000   8.0670000  10.5840000 -16.7920000   8.3680000  10.2770000
 -15.3260000   7.2040000   9.5140000 -15.6360000   5.8520000   9.8260000
 -16.2220000   5.4410000   9.0040000 -14.3920000   4.9910000   9.8440000
 -13.1540000   5.5800000   9.8470000 -13.0770000   6.6570000   9.8340000
 -12.0310000   4.8490000   9.8660000 -11.0650000   5.3530000   9.8650000
 -12.1690000   3.4270000   9.8830000 -11.0870000   2.6420000   9.9000000
 -11.2320000   1.6430000   9.9120000 -10.1630000   3.0490000   9.9010000
 -13.3660000   2.8340000   9.8790000 -14.5000000   3.5820000   9.8610000
 -15.6130000   3.0360000   9.8620000 -15.7710000   7.1320000  11.7860000
 -15.1070000   6.8570000  12.6060000 -16.3630000   5.8700000  11.1660000
 -16.1450000   5.1940000  11.9920000 -17.7630000   5.9340000  10.9670000
 -18.0590000   5.0430000  10.7650000 -16.5460000   7.6080000  12.8860000
 -16.1200000   7.1820000  14.3730000 -16.9560000   7.9460000  15.3280000
 -14.6430000   7.2670000  14.4620000 -16.5350000   5.6380000  14.4440000
 -17.8900000   5.2540000  14.6600000 -18.5360000   5.6660000  13.8850000
 -18.1950000   5.6440000  15.6310000 -18.0200000   3.7430000  14.6660000
 -19.0730000   3.4610000  14.6670000 -17.5000000   3.2020000  13.4240000
 -16.8410000   1.9700000  13.6800000 -17.1750000   1.2510000  12.9320000
 -15.4000000   2.0840000  13.4320000 -14.6610000   3.2280000  13.2360000
 -15.1380000   4.1970000  13.2490000 -13.3920000   3.0020000  13.0430000
 -13.2750000   1.6190000  13.1190000 -12.1360000   0.7770000  12.9870000
 -10.9590000   1.1010000  12.7680000 -12.4630000  -0.5750000  13.1380000
 -11.7240000  -1.2440000  13.0640000 -13.7310000  -1.0550000  13.3820000
 -13.8630000  -2.3840000  13.4980000 -13.1330000  -3.0770000  13.4140000
 -14.7960000  -2.7320000  13.6680000 -14.8000000  -0.2780000  13.5040000
 -14.5030000   1.0410000  13.3620000 -17.1920000   3.0170000  15.7170000
 -16.2890000   3.1890000  16.3030000 -17.1550000   1.6110000  15.1260000
 -16.4390000   1.1680000  15.8180000 -18.3820000   0.9110000  15.2050000
 -18.2000000  -0.0010000  14.9680000 -17.7700000   3.0600000  17.0140000
 -16.8180000   3.2590000  18.2890000 -17.3700000   4.3910000  19.0650000
 -15.4100000   3.3170000  17.8420000 -17.0150000   1.9190000  19.1450000
 -17.7770000   0.8050000  18.6660000 -18.1150000   1.0150000  17.6510000
 -18.6410000   0.7000000  19.3220000 -16.9840000  -0.4940000  18.6710000
 -17.6920000  -1.3190000  18.7440000 -16.3120000  -0.7030000  17.4000000
 -15.1480000  -1.4940000  17.6090000 -15.1770000  -2.3880000  16.9860000
 -13.9040000  -0.7820000  17.1240000 -13.9010000   0.6010000  16.9890000
 -14.7950000   1.1360000  17.2740000 -12.8350000   1.3010000  16.5750000
 -12.8610000   2.3860000  16.4740000 -11.6220000   0.5920000  16.2490000
 -10.5830000   1.1110000  15.8560000 -11.6860000  -0.7840000  16.4030000
 -10.7790000  -1.3370000  16.1590000 -12.7690000  -1.5240000  16.8290000
 -12.7070000  -2.7400000  16.9300000 -15.8250000  -0.5850000  19.6510000
 -15.1100000   0.0590000  20.1630000 -15.1030000  -1.8100000  19.1030000
 -14.2030000  -1.7390000  19.7130000 -15.7660000  -3.0290000  19.3820000
 -15.1540000  -3.7370000  19.1680000 -16.2660000  -0.7430000  20.9870000
 -15.3840000  -0.1040000  22.1580000 -16.2110000  -0.0950000  23.3870000
 -14.7860000   1.1600000  21.6630000 -14.2080000  -1.1740000  22.3490000
 -14.4760000  -2.4840000  22.8500000 -15.3920000  -2.8680000  22.4000000
 -14.6020000  -2.4210000  23.9310000 -13.3310000  -3.4290000  22.5350000
 -13.6320000  -4.4510000  22.7640000 -13.0720000  -3.4370000  21.1070000
 -11.6780000  -3.5240000  20.8670000 -11.5180000  -4.2740000  20.0920000
 -11.1830000  -2.2860000  20.2590000 -11.7940000  -1.0540000  20.2090000
 -12.7710000  -0.9130000  20.6470000 -11.0870000  -0.1410000  19.6020000
  -9.9270000  -0.8050000  19.2230000  -8.7810000  -0.3390000  18.5280000
  -8.5630000   0.8010000  18.0950000  -7.8280000  -1.3450000  18.3510000
  -6.9850000  -1.1190000  17.8620000  -7.9740000  -2.6410000  18.7980000
  -6.9740000  -3.4930000  18.5500000  -6.1160000  -3.2960000  18.0550000
  -7.0980000  -4.4410000  18.8750000  -9.0390000  -3.0890000  19.4430000
  -9.9740000  -2.1240000  19.6230000 -11.9850000  -3.0480000  23.1350000
 -11.4830000  -2.1730000  23.5480000 -11.0240000  -3.8000000  22.2180000
 -10.1060000  -3.3220000  22.5600000 -10.9520000  -5.1910000  22.4670000
 -10.1940000  -5.5240000  21.9810000 -11.8870000  -3.4350000  24.5000000
 -11.2690000  -2.4100000  25.5670000 -11.8740000  -2.7000000  26.8890000
 -11.3440000  -1.0370000  25.0100000  -9.7400000  -2.8750000  25.6260000
  -8.7620000  -2.2170000  24.8490000  -8.2440000  -1.4880000  25.4720000
  -9.2450000  -1.7050000  24.0170000  -7.7570000  -3.2100000  24.3060000
  -7.9760000  -4.2190000  24.6560000  -7.8790000  -3.2920000  22.8630000
  -6.6550000  -2.9390000  22.2420000  -6.5610000  -3.4960000  21.3100000
  -6.7150000  -1.5380000  21.8050000  -7.7700000  -0.6650000  21.9560000
  -8.6780000  -1.0010000  22.4350000  -7.5510000   0.5270000  21.4820000
  -6.2630000   0.4470000  20.9730000  -5.4830000   1.4360000  20.3280000
  -5.8030000   2.6050000  20.0810000  -4.2210000   0.9600000  19.9600000
  -3.5960000   1.5890000  19.4970000  -3.7720000  -0.3240000  20.1940000
  -2.5300000  -0.6160000  19.7810000  -1.8870000   0.0000000  19.3050000
  -2.2100000  -1.5590000  19.9470000  -4.4970000  -1.2610000  20.7980000
  -5.7300000  -0.8130000  21.1630000  -6.3150000  -2.8010000  24.5690000
  -5.7780000  -1.9810000  25.0450000  -5.5840000  -3.2170000  23.2960000
  -4.7000000  -2.5950000  23.4340000  -5.2070000  -4.5790000  23.3060000
  -4.5870000  -4.7040000  22.5840000  -5.8180000  -3.4520000  25.7340000
  -4.8690000  -2.6330000  26.7220000  -4.6290000  -3.4610000  27.9270000
  -5.4210000  -1.2680000  26.8740000  -3.5130000  -2.5330000  25.8810000
  -2.6880000  -3.6760000  25.6710000  -3.2230000  -4.4140000  25.0730000
  -2.4300000  -4.1100000  26.6370000  -1.4160000  -3.2760000  24.9480000
  -0.8440000  -4.1670000  24.6880000  -1.7550000  -2.6770000  23.6730000
  -0.8220000  -1.6590000  23.3540000  -0.3310000  -1.8250000  22.3950000
  -1.5250000  -0.3900000  23.1500000  -2.8340000  -0.1120000  23.4390000
  -3.4480000  -0.8630000  23.9140000  -3.2010000   1.1140000  23.1480000
  -2.0510000   1.6850000  22.6290000  -1.7710000   2.9760000  22.1270000
  -2.6800000   3.9540000  22.0730000  -2.4260000   4.8590000  21.7040000
  -3.6210000   3.7880000  22.4010000  -0.5190000   3.2280000  21.6850000
   0.3920000   2.2460000  21.7430000   1.4010000   2.4190000  21.3990000
   0.2500000   0.9960000  22.1880000  -1.0070000   0.7740000  22.6220000
  -0.5810000  -2.2120000  25.6430000  -0.6860000  -1.4600000  26.4250000
   0.2080000  -1.6270000  24.4790000   0.5420000  -0.7250000  24.9910000
   1.3310000  -2.4070000  24.1180000   1.8720000  -1.8680000  23.5370000
   0.2590000  -2.7910000  26.6310000   0.4670000  -2.0470000  28.0350000
   1.0970000  -3.0100000  28.9660000  -0.7990000  -1.3820000  28.4160000
   1.5400000  -0.9180000  27.6850000   2.8050000  -1.2590000  27.1300000
   2.6400000  -2.0580000  26.4070000   3.5020000  -1.6010000  27.8960000
   3.3960000  -0.0580000  26.4190000   4.1540000  -0.4000000  25.7150000
   2.3790000   0.5590000  25.5870000   2.3800000   1.9550000  25.7890000
   2.9390000   2.4510000  24.9950000   0.9970000   2.5170000  25.6310000
  -0.0930000   1.8400000  26.1600000   0.0860000   0.9270000  26.7080000
  -1.3500000   2.2980000  26.0640000  -2.1940000   1.7450000  26.4760000
  -1.5910000   3.5510000  25.3880000  -2.6890000   4.0750000  25.2280000
  -0.4600000   4.1730000  24.8860000  -0.6210000   5.1170000  24.3650000
   0.8390000   3.7260000  24.9720000   1.7630000   4.3610000  24.4940000
   3.9250000   1.0310000  27.3460000   4.4110000   1.0980000  28.3200000
   2.9320000   2.1800000  27.1930000   2.3780000   1.9840000  28.1110000
   3.5520000   3.4480000  27.2790000   2.8530000   4.0950000  27.3980000
   5.2240000   1.4180000  26.9370000   6.4820000   1.1350000  27.8820000
   6.5970000  -0.3270000  28.0780000   6.4100000   2.0310000  29.0560000
   7.6890000   1.6080000  26.9510000   7.9230000   0.9960000  25.6830000
   6.9870000   1.0120000  25.1240000   8.2590000  -0.0350000  25.7980000
   8.9730000   1.7810000  24.9200000   9.1580000   1.2930000  23.9630000
   8.4150000   3.0670000  24.5680000   9.2860000   4.1080000  24.9480000
   9.8750000   4.5040000  24.1200000   8.4580000   5.2480000  25.3380000
   7.1420000   5.2130000  25.7150000   6.6290000   4.2660000  25.7900000
   6.6410000   6.3870000  26.0150000   7.7010000   7.2560000  25.8230000
   7.8250000   8.6560000  25.9730000   6.8180000   9.4420000  26.3680000
   6.9600000  10.4380000  26.4590000   5.9150000   9.0400000  26.5750000
   9.0250000   9.2200000  25.7000000  10.0350000   8.4310000  25.2980000
  11.0030000   8.8510000  25.0660000  10.0380000   7.1060000  25.1250000
   8.8320000   6.5720000  25.4040000  10.2670000   2.0670000  25.6830000
  10.9260000   1.5550000  26.3840000  10.1470000   3.5410000  26.0780000
   9.7760000   3.3580000  27.0870000  11.4000000   4.1950000  26.1480000
  11.2590000   5.0230000  26.6130000  11.4050000   1.8000000  24.8500000
  12.1060000   0.3560000  24.8530000  12.0650000  -0.1630000  26.2400000
  13.4130000   0.4770000  24.1650000  11.0870000  -0.5070000  23.9520000
  11.5160000  -1.4820000  22.9880000  12.6030000  -1.3990000  22.9630000
  11.1130000  -1.2620000  22.0000000  11.1310000  -2.9050000  23.3810000
  11.3590000  -3.5360000  22.5220000  12.0200000  -3.3810000  24.4290000
  11.2420000  -4.0630000  25.3890000  11.1050000  -5.1110000  25.1230000
  11.9740000  -4.1400000  26.7050000  12.7140000  -3.0560000  27.1480000
  12.7100000  -2.1570000  26.5500000  13.3900000  -3.0570000  28.3080000
  13.9610000  -2.1890000  28.6360000  13.3580000  -4.2360000  29.1420000
  13.9320000  -4.3580000  30.2190000  12.6020000  -5.2850000  28.6400000
  12.5600000  -6.1860000  29.2510000  11.9000000  -5.3060000  27.4550000
  11.2660000  -6.2910000  27.1140000   9.7050000  -3.1220000  23.8980000
   8.7040000  -2.7300000  23.7180000   9.9180000  -3.3050000  25.4010000
   9.8130000  -2.2640000  25.7060000   8.9050000  -4.0790000  26.0120000
   9.0180000  -3.9900000  26.9610000   9.1100000  -4.3050000  23.3320000
   8.4210000  -4.4070000  21.8840000   8.5000000  -5.8300000  21.4910000
   8.9710000  -3.3680000  20.9810000   6.8830000  -4.0920000  22.1680000
   6.5280000  -2.7470000  22.3170000   6.8760000  -2.1980000  21.4420000
   7.0550000  -2.3910000  23.2020000   5.0490000  -2.5120000  22.4930000
   4.5050000  -3.3450000  22.9380000   4.9460000  -1.4460000  23.4730000
   4.5040000  -0.2530000  22.8480000   3.9740000   0.3290000  23.6020000
   5.6200000   0.6240000  22.4520000   6.8680000   0.2600000  21.9930000
   7.1120000  -0.7880000  21.9010000   7.6540000   1.2560000  21.7090000
   6.8800000   2.3700000  21.9930000   7.2060000   3.7430000  21.8830000
   8.2740000   4.2400000  21.4990000   6.1480000   4.5640000  22.2720000
   6.2820000   5.5540000  22.2290000   4.9250000   4.1080000  22.7140000
   4.0280000   5.0500000  23.0440000   4.1590000   6.0510000  23.0130000
   3.1320000   4.7230000  23.3770000   4.6080000   2.8200000  22.8240000
   5.6290000   2.0040000  22.4500000   4.3770000  -1.9990000  21.2230000
   4.6270000  -1.9050000  20.1660000   3.6450000  -0.7370000  21.6880000
   3.5970000  -0.2640000  20.7070000   2.3350000  -0.9990000  22.1490000
   1.8820000  -0.1540000  22.2010000   3.4940000  -2.9840000  20.6800000
   3.2120000  -3.1210000  19.1020000   2.0670000  -4.0490000  18.9690000
   4.4810000  -3.4260000  18.4070000   2.7410000  -1.6630000  18.6480000
   1.4010000  -1.2230000  18.8550000   1.0990000  -1.4140000  19.8850000
   0.7540000  -1.7800000  18.1780000   1.2690000   0.2600000  18.5640000
   0.2760000   0.6060000  18.8500000   2.1710000   0.9970000  19.4230000
   2.5930000   2.1790000  18.7690000   2.3590000   3.0180000  19.4240000
   4.0550000   2.2110000  18.6740000   4.9090000   1.1510000  18.4620000
   4.5150000   0.1500000  18.3600000   6.1670000   1.4890000  18.4060000
   6.1500000   2.8650000  18.5890000   7.2190000   3.7940000  18.6240000
   8.4290000   3.5690000  18.4990000   6.7730000   5.1010000  18.8360000
   7.4600000   5.8260000  18.8790000   5.4540000   5.4680000  18.9890000
   5.2120000   6.7720000  19.1790000   5.8940000   7.5150000  19.2340000
   4.2450000   7.0390000  19.3000000   4.4430000   4.6070000  18.9550000
   4.8590000   3.3270000  18.7530000   1.6820000   0.6980000  17.1670000
   2.2830000   0.3600000  16.3230000   1.9190000   2.1900000  17.3960000
   2.4390000   2.3770000  16.4570000   0.7300000   2.9610000  17.4380000
   0.9910000   3.8830000  17.3710000   0.6530000   0.4230000  16.2170000
   0.9860000  -0.1540000  14.7580000   2.4470000  -0.3860000  14.6440000
   0.3060000   0.7240000  13.7840000   0.2460000  -1.5710000  14.7410000
   0.9540000  -2.7720000  15.0370000   1.8220000  -2.5440000  15.6550000
   1.2830000  -3.2260000  14.1020000   0.0580000  -3.7480000  15.7770000
   0.6620000  -4.5630000  16.1750000  -0.5130000  -3.1100000  16.9520000
  -1.8340000  -3.5870000  17.1600000  -1.9150000  -3.8980000  18.2020000
  -2.8530000  -2.4770000  17.0380000  -2.5080000  -1.2570000  16.5160000
  -1.4930000  -1.0870000  16.1890000  -3.4030000  -0.2650000  16.4000000
  -3.0880000   0.6920000  15.9840000  -4.7400000  -0.5250000  16.8380000
  -5.6800000   0.4210000  16.7520000  -6.6090000   0.1900000  17.0740000
  -5.4540000   1.3310000  16.3760000  -5.0930000  -1.7100000  17.3450000
  -4.1750000  -2.7090000  17.4600000  -4.4880000  -3.8130000  17.9300000
  -1.1640000  -4.2260000  15.0000000  -1.7820000  -3.9410000  14.1490000
  -2.0570000  -4.7030000  16.1400000  -2.9660000  -4.8190000  15.5490000
  -1.6840000  -5.9590000  16.6830000  -2.4130000  -6.2540000  17.2340000
  -0.8330000  -5.2640000  14.0920000  -1.6680000  -5.4530000  12.7420000
  -0.9520000  -6.4530000  11.9210000  -1.9550000  -4.1220000  12.1670000
  -3.0350000  -6.1050000  13.2560000  -3.0390000  -7.4300000  13.7850000
  -2.2520000  -7.5090000  14.5350000  -2.8400000  -8.1310000  12.9750000
  -4.3730000  -7.7710000  14.4240000  -4.2780000  -8.7050000  14.9780000
  -4.7060000  -6.7830000  15.4320000  -6.1070000  -6.5480000  15.4300000
  -6.5590000  -6.6660000  16.4150000  -6.3680000  -5.1390000  15.1130000
  -5.5290000  -4.2720000  14.4710000  -4.5800000  -4.6200000  14.0910000
  -6.0200000  -3.0650000  14.3280000  -7.2690000  -3.1390000  14.9180000
  -8.2950000  -2.1840000  15.0980000  -8.2030000  -0.9190000  14.6740000
  -8.9670000  -0.2770000  14.8290000  -7.3690000  -0.6050000  14.1990000
  -9.4250000  -2.5820000  15.7250000  -9.5180000  -3.8540000  16.1470000
 -10.4090000  -4.2030000  16.6490000  -8.6180000  -4.8360000  16.0390000
  -7.5040000  -4.4130000  15.4080000  -5.5680000  -7.7550000  13.4800000
  -5.8400000  -7.3780000  12.4940000  -6.7290000  -7.5370000  14.4470000
  -7.4750000  -7.2720000  13.6980000  -7.1370000  -8.7130000  15.1220000
  -7.9810000  -8.5200000  15.5360000  -5.6790000  -8.9830000  12.7760000
  -6.1990000  -9.0070000  11.2600000  -6.8920000 -10.3070000  11.0860000
  -5.0680000  -8.6380000  10.3770000  -7.2800000  -7.8240000  11.1850000
  -8.5080000  -8.0090000  10.4910000  -8.3770000  -8.8210000   9.7750000
  -8.7510000  -7.0900000   9.9570000  -9.6500000  -8.3550000  11.4360000
  -9.6110000  -9.4090000  11.7100000  -9.5160000  -7.6460000  12.6980000
 -10.6930000  -6.9110000  12.9920000 -10.8800000  -6.9630000  14.0640000
 -10.4680000  -5.4270000  12.7380000  -9.3020000  -5.0080000  12.1450000
  -8.5620000  -5.7460000  11.8730000  -9.0530000  -3.7170000  11.8940000
  -8.1150000  -3.4320000  11.4170000 -10.0520000  -2.7720000  12.2750000
  -9.8570000  -1.4690000  12.0520000 -10.5860000  -0.8300000  12.3350000
  -9.0050000  -1.1490000  11.6140000 -11.1950000  -3.1550000  12.8580000
 -11.4390000  -4.4720000  13.1060000 -12.4970000  -4.8250000  13.6460000
 -11.0070000  -7.9390000  10.8920000 -11.4060000  -7.4070000  10.0280000
 -11.7930000  -7.5450000  12.1400000 -12.5680000  -6.9760000  11.6270000
 -12.3810000  -8.6460000  12.8090000 -13.0120000  -8.2880000  13.4370000
 -11.5870000  -9.0120000  10.1660000 -11.9080000  -8.8010000   8.6120000
 -12.4040000 -10.0880000   8.0780000 -10.7350000  -8.1680000   7.9650000
 -13.1240000  -7.7540000   8.6570000 -14.4060000  -8.1670000   9.1280000
 -14.2670000  -8.8560000   9.9610000 -14.9050000  -8.6850000   8.3090000
 -15.2690000  -7.0020000   9.5820000 -16.1250000  -7.4150000  10.1160000
 -14.5770000  -6.1960000  10.5720000 -15.0890000  -4.8710000  10.5200000
 -15.3830000  -4.5880000  11.5310000 -14.0210000  -3.9210000  10.1910000
 -12.7210000  -4.2130000   9.8440000 -12.3860000  -5.2390000   9.7990000
 -11.9960000  -3.1580000   9.5950000 -12.8680000  -2.0930000   9.7830000
 -12.6490000  -0.6990000   9.6570000 -11.6020000  -0.1190000   9.3400000
 -13.7980000   0.0440000   9.9330000 -13.7390000   1.0400000   9.8710000
 -15.0130000  -0.4980000  10.2900000 -16.0110000   0.3640000  10.5220000
 -15.9670000   1.3720000  10.4750000 -16.8980000  -0.0350000  10.7920000
 -15.2320000  -1.8010000  10.4140000 -14.1210000  -2.5420000  10.1470000
 -15.6390000  -5.9630000   8.5330000 -15.2430000  -5.5110000   7.6230000
 -16.1800000  -4.8710000   9.4490000 -16.2830000  -4.0960000   8.6890000
 -17.4490000  -5.1510000  10.0110000 -17.7700000  -4.3340000  10.4000000
 -16.6040000  -6.4150000   7.5830000 -16.4110000  -6.0640000   6.0250000
 -16.5080000  -7.3400000   5.2830000 -15.1860000  -5.2490000   5.8730000
 -17.6700000  -5.1450000   5.6300000 -18.5680000  -4.5770000   6.5950000
 -18.2220000  -4.9180000   7.5710000 -19.5640000  -4.9770000   6.4030000
 -18.6300000  -3.0500000   6.5900000 -19.6060000  -2.8010000   7.0070000
 -17.6760000  -2.4900000   7.5360000 -17.3350000  -1.1680000   7.1310000
 -17.5260000  -0.5120000   7.9800000 -15.8490000  -1.0050000   6.8800000
 -15.0670000  -2.0990000   6.6090000 -15.5190000  -3.0800000   6.5830000
 -13.7510000  -1.9830000   6.3740000 -13.1640000  -2.8780000   6.1670000
 -13.1860000  -0.6710000   6.4130000 -11.8790000  -0.4970000   6.1890000
 -11.5180000   0.4460000   6.2250000 -11.2860000  -1.2910000   5.9920000
 -13.9320000   0.4090000   6.6740000 -15.2670000   0.2800000   6.9090000
 -15.9680000   1.2740000   7.1490000 -18.2960000  -2.2910000   5.3050000
 -17.6840000  -2.3790000   4.4080000 -18.1590000  -0.8790000   5.8790000
 -17.7640000  -0.4110000   4.9770000 -19.3890000  -0.2660000   6.2290000
 -19.2060000   0.6640000   6.3810000 -19.3260000  -2.3730000   4.3210000
 -19.0500000  -2.0420000   2.7690000 -20.1980000  -1.2220000   2.3120000
 -18.7190000  -3.3100000   2.0820000 -17.7340000  -1.1270000   2.7560000
 -17.4300000  -0.2920000   1.6410000 -18.1080000  -0.5540000   0.8290000
 -16.4010000  -0.4510000   1.3190000 -17.6210000   1.1720000   1.9990000
 -18.6860000   1.3720000   2.1170000 -17.0500000   1.4490000   3.3100000
 -16.2240000   2.5980000   3.2490000 -16.3150000   3.2200000   4.1400000
 -14.8190000   2.1850000   3.2770000 -14.3300000   0.9100000   3.3590000
 -15.0170000   0.0770000   3.3680000 -13.0200000   0.8300000   3.3580000
 -12.6170000   2.1490000   3.2690000 -11.3410000   2.7540000   3.2290000
 -10.1940000   2.0660000   3.2740000  -9.3110000   2.5540000   3.2420000
 -10.2120000   1.0580000   3.3400000 -11.2920000   4.1010000   3.1400000
 -12.4330000   4.8020000   3.0970000 -12.4180000   5.8800000   3.0260000
 -13.6860000   4.3460000   3.1310000 -13.7110000   3.0000000   3.2180000
 -16.9430000   2.1520000   1.0500000 -16.2520000   2.1480000   0.2070000
 -16.6200000   3.3280000   1.9670000 -15.9130000   3.8230000   1.3010000
 -17.7250000   4.1830000   2.2010000 -17.3800000   4.9830000   2.6050000
 -17.8350000   2.5170000   0.0030000 -17.3250000   2.5880000  -1.5130000
 -18.5110000   2.8210000  -2.3650000 -16.4480000   1.4230000  -1.7740000
 -16.4340000   3.9150000  -1.5350000 -17.0170000   5.2020000  -1.3520000
 -17.6160000   5.1990000  -0.4410000 -17.6510000   5.4540000  -2.2020000
 -15.9190000   6.2410000  -1.2230000 -16.3610000   7.2120000  -1.0030000
 -15.1060000   5.9400000  -0.0610000 -13.7420000   6.2050000  -0.3410000
 -13.2750000   6.8540000   0.4000000 -12.9670000   4.9680000  -0.2310000
 -13.4530000   3.6940000  -0.1140000 -14.5180000   3.5170000  -0.1510000
 -12.5230000   2.7760000  -0.0250000 -11.3420000   3.4960000  -0.0870000
  -9.9840000   3.1090000  -0.0440000  -9.5870000   1.8400000   0.0760000
  -8.6020000   1.6190000   0.1020000 -10.2720000   1.1010000   0.1410000
  -9.0460000   4.0780000  -0.1330000  -9.4410000   5.3520000  -0.2550000
  -8.7150000   6.1480000  -0.3320000 -10.6830000   5.8360000  -0.3010000
 -11.5960000   4.8500000  -0.2140000 -14.9390000   6.2910000  -2.3870000
 -14.6560000   5.7130000  -3.2670000 -13.6850000   6.8500000  -1.7210000
 -12.9910000   6.5740000  -2.5150000 -13.6980000   8.2590000  -1.5740000
 -12.8030000   8.5260000  -1.3520000 -15.4390000   7.1600000  -3.3860000
 -15.2200000   6.8790000  -4.9470000 -15.9290000   7.9560000  -5.6730000
 -15.5530000   5.4640000  -5.2220000 -13.6510000   7.0890000  -5.1720000
 -13.0490000   8.3730000  -5.0040000 -13.4010000   8.8150000  -4.0720000
 -13.3350000   9.0120000  -5.8400000 -11.5390000   8.2560000  -4.9600000
 -11.0930000   9.2360000  -4.7910000 -11.1410000   7.4720000  -3.8080000
 -10.0370000   6.6390000  -4.1420000  -9.2300000   6.7900000  -3.4250000
 -10.4180000   5.2370000  -3.9460000 -11.6840000   4.7150000  -4.0730000
 -12.5110000   5.3530000  -4.3470000 -11.7500000   3.4390000  -3.8340000
 -10.4480000   3.0820000  -3.5280000  -9.9160000   1.8160000  -3.1850000
 -10.5300000   0.7440000  -3.0860000  -8.5370000   1.8650000  -2.9390000
  -8.0730000   1.0180000  -2.6800000  -7.7700000   3.0070000  -3.0280000
  -6.4620000   2.8630000  -2.7650000  -5.9850000   2.0130000  -2.4990000
  -5.8960000   3.6980000  -2.8200000  -8.2660000   4.2030000  -3.3530000
  -9.6080000   4.1740000  -3.5880000 -10.9320000   7.5260000  -6.1460000
 -11.2490000   6.8980000  -6.9780000  -9.6250000   6.9880000  -5.5710000
  -9.4380000   6.2540000  -6.3550000  -8.5790000   7.9410000  -5.5590000
  -7.7650000   7.4620000  -5.3890000 -10.7410000   8.4280000  -7.2250000
 -11.5520000   8.2440000  -8.5970000 -11.5870000   9.5570000  -9.2760000
 -12.8070000   7.5040000  -8.3510000 -10.5960000   7.2770000  -9.4240000
  -9.3460000   7.7050000  -9.9340000  -8.7120000   8.0170000  -9.1040000
  -9.4500000   8.5280000 -10.6410000  -8.7040000   6.5250000 -10.6350000
  -7.6750000   6.7700000 -10.8980000  -8.5880000   5.4200000  -9.7000000
  -9.0400000   4.2430000 -10.3310000  -8.2130000   3.7200000 -10.8120000
  -9.5240000   3.2500000  -9.3170000 -10.5930000   3.5740000  -8.4990000
 -11.0790000   4.5290000  -8.6370000 -11.0810000   2.7300000  -7.5800000
 -11.9140000   3.0100000  -6.9350000 -10.4820000   1.4270000  -7.4300000
 -10.8330000   0.5720000  -6.6240000  -9.4210000   1.1750000  -8.2780000
  -8.9520000   0.1960000  -8.1790000  -8.8960000   2.0190000  -9.2260000
  -7.9510000   1.6860000  -9.9190000  -9.4940000   5.9990000 -11.8310000
 -10.1130000   6.4050000 -12.6310000 -10.1150000   4.6980000 -11.3150000
 -11.0760000   5.1200000 -11.0210000 -10.3170000   3.7190000 -12.3150000
 -10.8840000   3.0430000 -11.9360000  -8.6170000   5.8090000 -12.9510000
  -8.6520000   6.8800000 -14.1360000  -7.6090000   6.5240000 -15.1190000
  -8.6420000   8.2260000 -13.5250000 -10.0880000   6.6240000 -14.8000000
 -10.2360000   5.5550000 -15.7180000  -9.8430000   4.6560000 -15.2430000
  -9.6600000   5.7720000 -16.6170000 -11.6840000   5.3240000 -16.0980000
 -12.3380000   5.8550000 -15.4070000 -11.9350000   5.9430000 -17.3830000
 -12.4400000   4.9770000 -18.2830000 -13.5260000   5.0090000 -18.3710000
 -11.9830000   5.3440000 -19.6490000 -10.6280000   5.4470000 -19.9020000
  -9.9430000   5.2110000 -19.1010000 -10.1290000   5.7740000 -21.1000000
  -9.0570000   5.8450000 -21.2860000 -11.0480000   6.0420000 -22.1760000
 -10.7110000   6.3580000 -23.3110000 -12.3920000   5.9230000 -21.8560000
 -13.0980000   6.1200000 -22.6630000 -12.9250000   5.5840000 -20.6360000
 -14.1300000   5.5050000 -20.4570000 -12.0760000   3.8540000 -16.2610000
 -11.9650000   2.9020000 -15.7430000 -11.9390000   3.6340000 -17.7630000
 -10.8910000   3.3360000 -17.7660000 -12.7350000   2.5660000 -18.2520000
 -12.4370000   2.3800000 -19.1460000 -13.4300000   3.6460000 -15.8740000
 -13.8640000   3.3760000 -14.3620000 -15.3210000   3.0900000 -14.3700000
 -13.3300000   4.4510000 -13.4960000 -13.0960000   2.0280000 -14.0110000
 -13.3700000   0.7940000 -14.6600000 -13.3710000   0.8980000 -15.7450000
 -14.3270000   0.3870000 -14.3340000 -12.2610000  -0.1540000 -14.2520000
 -12.4050000  -1.1450000 -14.6830000 -11.0060000   0.3060000 -14.8100000
 -10.0120000  -0.0010000 -13.8620000  -9.7420000  -1.0570000 -13.8830000
  -8.7350000   0.6800000 -14.2280000  -8.6100000   2.0520000 -14.1040000
  -9.4410000   2.6100000 -13.6980000  -7.4850000   2.7090000 -14.4170000
  -7.3970000   3.7900000 -14.3040000  -6.3610000   1.9610000 -14.9160000
  -5.2900000   2.4530000 -15.2390000  -6.5550000   0.5900000 -15.0190000
  -5.7180000   0.0040000 -15.3980000  -7.7010000  -0.1020000 -14.6970000
  -7.7940000  -1.3110000 -14.8240000 -12.0310000  -0.1950000 -12.7450000
 -12.6330000  -0.0350000 -11.8510000 -10.6380000   0.3950000 -12.5330000
 -10.9340000   1.4140000 -12.2840000  -9.9330000  -0.1690000 -11.4460000
  -9.1610000   0.3820000 -11.2960000 -12.1430000  -1.5220000 -12.2900000
 -12.8490000  -1.7370000 -10.8800000 -14.1680000  -1.0600000 -10.8540000
 -11.8240000  -1.4460000  -9.8530000 -13.1890000  -3.2860000 -10.9150000
 -12.1770000  -4.1060000 -10.4540000 -12.2390000  -4.1920000  -9.3690000
 -11.2370000  -3.6270000 -10.7270000 -12.2270000  -5.4820000 -11.0630000
 -13.2220000  -5.8740000 -11.2710000 -11.5510000  -5.5040000 -12.3490000
 -10.3480000  -6.2470000 -12.2270000 -10.1010000  -6.6860000 -13.1940000
  -9.1780000  -5.3020000 -11.9490000  -9.3460000  -3.9460000 -12.1090000
 -10.3060000  -3.5750000 -12.4380000  -8.3580000  -3.0710000 -11.8700000
  -8.5410000  -2.0060000 -12.0160000  -7.1030000  -3.5930000 -11.4460000
  -6.0780000  -2.7740000 -11.2050000  -5.2070000  -3.1880000 -10.9060000
  -6.1850000  -1.7760000 -11.3220000  -6.9090000  -4.9040000 -11.2900000
  -7.9170000  -5.7900000 -11.5350000  -7.7400000  -7.0040000 -11.3820000
 -11.4340000  -6.3890000 -10.1530000 -10.9060000  -6.3550000  -9.2000000
 -10.6640000  -7.2700000 -11.1300000  -9.9220000  -7.6550000 -10.4300000
 -11.4380000  -8.3450000 -11.6370000 -10.8320000  -8.9430000 -12.0800000
 -12.3520000  -7.0600000  -9.3130000 -12.5410000  -6.6030000  -7.7880000
 -13.5600000  -7.4960000  -7.1790000 -12.7490000  -5.1420000  -7.7290000
 -11.1270000  -6.9540000  -7.1370000 -10.5490000  -8.2440000  -7.3150000
 -10.8790000  -8.6870000  -8.2550000 -10.8630000  -8.8770000  -6.4850000
  -9.0380000  -8.1400000  -7.3170000  -8.5980000  -9.1070000  -7.5620000
  -8.6020000  -7.2620000  -8.3850000  -7.3920000  -6.6360000  -7.9890000
  -6.5750000  -6.8570000  -8.6760000  -7.5080000  -5.1260000  -8.0710000
  -8.7460000  -4.5300000  -8.2920000  -9.6150000  -5.1680000  -8.3480000
  -8.9140000  -3.2000000  -8.3870000  -9.8960000  -2.7580000  -8.5550000
  -7.7630000  -2.3340000  -8.2610000  -7.7800000  -1.1060000  -8.3280000
  -6.5600000  -2.9950000  -8.0450000  -5.6780000  -2.3630000  -7.9430000
  -6.3640000  -4.3560000  -7.9440000  -5.2550000  -4.8270000  -7.7540000
  -8.4370000  -7.4970000  -6.0790000  -8.6870000  -6.8050000  -5.2750000
  -7.0460000  -7.1820000  -6.6050000  -6.7070000  -6.5690000  -5.7700000
  -6.2170000  -8.3250000  -6.7180000  -5.3230000  -8.0100000  -6.8690000
  -8.4080000  -8.3990000  -4.9830000  -8.4840000  -7.8570000  -3.4720000
  -8.5640000  -9.0360000  -2.5810000  -9.5350000  -6.8170000  -3.3990000
  -7.0640000  -7.1500000  -3.2690000  -5.8390000  -7.8830000  -3.3420000
  -5.8060000  -8.4650000  -4.2630000  -5.7810000  -8.5550000  -2.4860000
  -4.6590000  -6.9330000  -3.3100000  -3.7230000  -7.4730000  -3.4540000
  -4.7320000  -6.0280000  -4.4350000  -4.3360000  -4.7150000  -4.0540000
  -3.5210000  -4.3130000  -4.6560000  -5.4370000  -3.7860000  -4.3260000
  -6.7680000  -4.1020000  -4.4110000  -7.0950000  -5.1120000  -4.2150000
  -7.5440000  -3.0790000  -4.6770000  -6.6670000  -2.0120000  -4.7770000
  -6.8690000  -0.6380000  -5.0470000  -8.0720000  -0.1000000  -5.2720000
  -8.1560000   0.8890000  -5.4600000  -8.8970000  -0.6820000  -5.2540000
  -5.7800000   0.1650000  -5.0790000  -4.5730000  -0.3740000  -4.8520000
  -3.6870000   0.2430000  -4.8640000  -4.2620000  -1.6470000  -4.5930000
  -5.3610000  -2.4280000  -4.5670000  -4.6380000  -6.0220000  -2.0970000
  -5.2970000  -5.7480000  -1.2730000  -3.9040000  -4.7820000  -2.5940000
  -4.2490000  -4.0980000  -1.8180000  -2.5010000  -4.9270000  -2.5040000
  -2.1200000  -4.0540000  -2.6270000  -3.9480000  -6.6510000  -1.0290000
  -4.5110000  -6.4730000   0.4590000  -3.6460000  -7.2700000   1.3680000
  -5.9720000  -6.7100000   0.4000000  -4.2360000  -4.9290000   0.7740000
  -2.9330000  -4.4990000   1.1450000  -2.1900000  -4.9420000   0.4810000
  -2.7450000  -4.8240000   2.1680000  -2.8270000  -2.9910000   1.0750000
  -1.7880000  -2.6670000   1.1450000  -3.2570000  -2.5520000  -0.2390000
  -3.9520000  -1.3220000  -0.1370000  -3.4600000  -0.6210000  -0.8120000
  -5.3520000  -1.4220000  -0.6860000  -6.1180000  -2.5410000  -0.4810000
  -5.7040000  -3.3720000   0.0710000  -7.3730000  -2.6310000  -0.9500000
  -7.9530000  -3.5370000  -0.7750000  -7.8800000  -1.5060000  -1.6730000
  -9.1150000  -1.5100000  -2.1800000  -9.4190000  -0.6880000  -2.6810000
  -9.7130000  -2.3150000  -2.0580000  -7.1440000  -0.4130000  -1.8760000
  -5.8830000  -0.3350000  -1.3970000  -5.2040000   0.6810000  -1.5850000
  -3.7470000  -2.2520000   2.0360000  -4.6210000  -2.4640000   2.6530000
  -3.9310000  -0.9060000   1.3370000  -4.8140000  -0.6030000   1.8990000
  -2.8810000   0.0070000   1.5830000  -3.1870000   0.8710000   1.2960000
  -3.1800000  -2.1600000   3.3510000  -3.7100000  -3.1550000   4.4910000
  -4.9240000  -3.8280000   3.9690000  -3.7700000  -2.3910000   5.7580000
  -2.5880000  -4.2930000   4.6080000  -1.2760000  -3.9920000   5.0370000
  -1.1880000  -4.2170000   6.1000000  -1.0780000  -2.9330000   4.8720000
  -0.2590000  -4.8160000   4.2670000  -0.6460000  -5.8210000   4.0970000
  -0.0650000  -4.2710000   2.9350000   1.3190000  -4.1420000   2.6490000
   1.4960000  -4.4580000   1.6210000   1.7380000  -2.6860000   2.6530000
   0.8550000  -1.7140000   3.0490000  -0.1420000  -1.9920000   3.3560000
   1.2020000  -0.4200000   3.0640000   0.4750000   0.3230000   3.3920000
   2.5260000  -0.0840000   2.6400000   2.9320000   1.1880000   2.6260000
   3.8760000   1.3760000   2.3190000   2.3060000   1.9260000   2.9160000
   3.3960000  -1.0170000   2.2450000   3.0380000  -2.3270000   2.2400000
   3.8380000  -3.2000000   1.8780000   1.1290000  -4.8130000   4.8880000
   1.6740000  -4.2980000   5.6790000   2.0430000  -5.0010000   3.6800000
   2.9760000  -4.7270000   4.1720000   2.1300000  -6.3340000   3.2140000
   2.8630000  -6.3680000   2.5950000   1.2200000  -5.8670000   5.8270000
   1.6950000  -5.5730000   7.3260000   1.1540000  -6.6710000   8.1630000
   1.4170000  -4.1600000   7.6840000   3.2770000  -5.7590000   7.1990000
   3.7940000  -6.9560000   6.6320000   3.1290000  -7.2960000   5.8380000
   3.8470000  -7.7160000   7.4120000   5.1770000  -6.7330000   6.0610000
   5.5710000  -7.6780000   5.6870000   5.1140000  -5.8790000   4.8940000
   6.3220000  -5.1410000   4.7960000   6.7720000  -5.3190000   3.8190000
   6.0080000  -3.7100000   4.7780000   4.8330000  -3.1110000   5.1790000
   4.0200000  -3.7120000   5.5590000   4.8310000  -1.8130000   5.0470000
   6.0870000  -1.5240000   4.5280000   6.6680000  -0.2770000   4.1730000
   6.1650000   0.8530000   4.2580000   7.9670000  -0.4240000   3.6760000
   8.4590000   0.3990000   3.3910000   8.6200000  -1.6310000   3.5460000
   9.8660000  -1.5900000   3.0530000  10.3750000  -0.7700000   2.7550000
  10.3400000  -2.4760000   2.9500000   8.0860000  -2.8050000   3.8740000
   6.8240000  -2.6820000   4.3580000   6.1360000  -6.0060000   6.9820000
   6.1570000  -5.3430000   7.8470000   7.1940000  -5.5630000   5.9770000
   7.7270000  -4.8700000   6.6280000   8.0630000  -6.6110000   5.5930000
   8.8010000  -6.2080000   5.1290000   6.6160000  -6.9070000   7.9650000
   7.3260000  -6.3860000   9.3010000   7.5580000  -7.5680000  10.1700000
   6.5980000  -5.2080000   9.8310000   8.7420000  -5.9190000   8.7270000
   9.5800000  -5.0500000   9.4610000  10.0950000  -5.6100000  10.2410000
   8.9990000  -4.2470000   9.9150000  10.6030000  -4.4530000   8.5190000
  11.3190000  -5.2200000   8.2260000   9.9790000  -4.0390000   7.2690000
  10.5030000  -2.7810000   6.8710000  10.6850000  -2.8030000   5.7970000
   9.4670000  -1.7530000   7.0270000   8.2110000  -1.9240000   7.5620000
   7.9010000  -2.8970000   7.9140000   7.4940000  -0.8370000   7.5850000
   8.3250000   0.1280000   7.0330000   8.0890000   1.5080000   6.7970000
   7.0640000   2.1600000   7.0450000   9.1900000   2.1420000   6.2160000
   9.1210000   3.1190000   6.0150000  10.3740000   1.5120000   5.9010000
  11.3280000   2.2750000   5.3500000  11.2680000   3.2590000   5.1310000
  12.1930000   1.8120000   5.1110000  10.6060000   0.2170000   6.1160000
   9.5430000  -0.4180000   6.6820000  11.2700000  -3.1980000   9.0530000
  11.1430000  -2.4320000   9.8180000  11.7320000  -2.5460000   7.7530000
  12.0140000  -1.5750000   8.1600000  12.8750000  -3.1760000   7.2010000
  13.2060000  -2.6000000   6.5080000  12.3360000  -3.5470000   9.9270000
  12.5610000  -2.7120000  11.2760000  13.5100000  -3.4680000  12.1270000
  11.2430000  -2.3200000  11.8260000  13.2910000  -1.3980000  10.7330000
  14.5840000  -1.4960000  10.1450000  14.5690000  -2.2390000   9.3470000
  15.2910000  -1.8040000  10.9150000  15.0190000  -0.1620000   9.5750000
  15.9880000  -0.2650000   9.0880000  14.1160000   0.2300000   8.5090000
  14.0180000   1.6440000   8.4810000  14.2170000   1.9820000   7.4640000
  12.6260000   2.0270000   8.7060000  11.5910000   1.2250000   9.1230000
  11.7580000   0.1760000   9.3170000  10.4540000   1.8560000   9.2440000
  10.7510000   3.1680000   8.8880000   9.9230000   4.3220000   8.8220000
   8.7160000   4.4230000   9.0780000  10.6290000   5.4530000   8.4140000
  10.1270000   6.3140000   8.3350000  11.9710000   5.4720000   8.1070000
  12.4870000   6.6490000   7.7300000  11.9950000   7.5260000   7.6350000
  13.4700000   6.6570000   7.4970000  12.7590000   4.4020000   8.1620000
  12.0880000   3.2860000   8.5580000  14.9580000   1.0040000  10.5470000
  14.5040000   1.3110000  11.4890000  14.9500000   2.1740000   9.5750000
  14.6510000   2.9330000  10.2980000  16.2370000   2.4840000   9.0700000
  16.1740000   3.3460000   8.6520000  16.0850000   1.0180000  11.4040000
  15.9190000   1.4300000  12.9430000  17.2310000   1.1900000  13.5860000
  14.7110000   0.7750000  13.4950000  15.6590000   3.0110000  12.8750000
  16.7280000   3.9150000  12.5850000  17.4040000   3.4430000  11.8720000
  17.2600000   4.1080000  13.5170000  16.2360000   5.2310000  12.0100000
  17.0390000   5.6960000  11.4370000  15.1820000   5.0040000  11.0400000
  14.2270000   6.0540000  11.1010000  14.0810000   6.4370000  10.0910000
  12.8610000   5.5190000  11.4830000  12.7400000   4.2360000  11.9540000
  13.6240000   3.6220000  12.0440000  11.5540000   3.7220000  12.3060000
  11.5010000   2.6970000  12.6730000  10.4080000   4.5650000  12.1770000
   9.1980000   4.1110000  12.5120000   8.4150000   4.7400000  12.4050000
   9.0860000   3.1690000  12.8590000  10.5060000   5.8200000  11.7230000
  11.7140000   6.3360000  11.3660000  11.8070000   7.4990000  10.9430000
  15.5870000   6.1690000  13.0120000  15.1310000   6.1500000  14.0020000
  14.7750000   7.0750000  12.0960000  14.1740000   7.5460000  12.8740000
  15.5540000   8.0600000  11.4410000  14.9420000   8.6940000  11.0610000
  16.5540000   6.8940000  13.7460000  16.2990000   7.1570000  15.3030000
  17.5190000   7.8000000  15.8400000  15.8020000   5.8990000  15.9090000
  15.1000000   8.2170000  15.3150000  15.3110000   9.5600000  14.9090000
  15.8930000   9.5700000  13.9880000  15.8600000  10.0840000  15.6910000
  13.9890000  10.2630000  14.6710000  14.1650000  11.1600000  14.0780000
  13.1260000   9.4430000  13.8430000  11.7700000   9.6900000  14.1800000
  11.1890000  10.0470000  13.3290000  11.0940000   8.4350000  14.5390000
  11.6670000   7.2040000  14.7230000  12.7390000   7.0940000  14.6530000
  10.8140000   6.2580000  15.0380000   9.5880000   6.9070000  15.0610000
   8.2680000   6.4640000  15.3280000   7.9580000   5.2020000  15.6390000
   6.9970000   4.9480000  15.8190000   8.6840000   4.5020000  15.6940000
   7.2690000   7.3750000  15.2700000   7.5670000   8.6470000  14.9630000
   6.7920000   9.3970000  14.9050000   8.7620000   9.1780000  14.6960000
   9.7420000   8.2520000  14.7570000  13.1550000  10.5200000  15.9150000
  13.0360000  10.1900000  16.9470000  11.7800000  10.7400000  15.2900000
  11.2130000  10.6690000  16.2180000  11.6060000  12.0300000  14.7280000
  10.6670000  12.1390000  14.5620000  13.6360000  11.6750000  16.5860000
  13.5350000  11.8230000  18.1760000  14.2870000  13.0420000  18.5500000
  13.8870000  10.5230000  18.7900000  11.9850000  12.1000000  18.4540000
  11.3210000  13.2810000  18.0070000  11.6370000  13.5380000  16.9960000
  11.5630000  14.1010000  18.6830000   9.8200000  13.0520000  18.0170000
   9.3080000  13.8590000  17.4940000   9.5000000  11.8630000  17.2520000
   8.4390000  11.1450000  17.8640000   7.6140000  11.0410000  17.1590000
   8.8610000   9.7110000  18.1380000  10.1890000   9.4020000  18.2800000
  10.9240000  10.1900000  18.2070000  10.6020000   8.1460000  18.5070000
  11.6670000   7.9440000  18.6190000   9.6030000   7.1300000  18.5930000
   9.9480000   5.8590000  18.8210000   9.2080000   5.1740000  18.8740000
  10.9200000   5.6080000  18.9340000   8.3050000   7.4100000  18.4540000
   7.8960000   8.6850000  18.2250000   6.6920000   8.9430000  18.0900000
   9.2390000  12.7680000  19.3930000   9.5990000  12.5100000  20.3890000
   7.9880000  11.9530000  19.0770000   7.8420000  11.5410000  20.0760000
   6.8780000  12.7600000  18.7330000   6.1020000  12.1950000  18.7580000
   8.9460000  13.9800000  20.0680000   9.1920000  14.0650000  21.6430000
   9.1190000  15.4910000  22.0310000  10.4020000  13.2780000  21.9670000
   7.9220000  13.3020000  22.2460000   6.6040000  13.8260000  22.1060000
   6.4420000  14.1270000  21.0710000   6.4990000  14.6940000  22.7570000
   5.5680000  12.7860000  22.4910000   4.5720000  13.1620000  22.2570000
   5.7180000  11.6120000  21.6560000   5.3530000  10.4500000  22.3880000
   4.4990000   9.9690000  21.9110000   6.4480000   9.4080000  22.2960000
   7.7400000   9.8030000  22.0670000   7.9630000  10.8550000  21.9670000
   8.7370000   8.9160000  21.9630000   9.7530000   9.2700000  21.7870000
   8.4050000   7.5330000  22.0950000   9.3560000   6.6000000  22.0030000
   9.0770000   5.6340000  22.1020000  10.3160000   6.8660000  21.8390000
   7.1510000   7.1290000  22.3150000   6.1430000   8.0360000  22.4200000
   4.9770000   7.6640000  22.6260000   5.6860000  12.2430000  23.9070000
   6.4250000  12.2010000  24.7070000   4.9770000  10.8950000  23.7970000
   5.3640000  10.4620000  24.7190000   3.5700000  11.0030000  23.8820000
   3.2280000  10.1150000  24.0100000   5.0540000  13.1240000  24.8260000
   5.8010000  13.5660000  26.1710000   5.4510000  14.9850000  26.4200000
   7.2260000  13.1700000  26.0790000   5.0960000  12.6580000  27.2880000
   5.1590000  13.0320000  28.6640000   4.1380000  13.2500000  28.9780000
   5.7700000  13.9280000  28.7690000   5.7290000  11.9330000  29.5450000
   5.0030000  11.1250000  29.6370000   6.8740000  11.3200000  28.9050000
   7.7740000  10.8680000  29.8940000   7.5950000   9.8160000  30.1180000
   9.1150000  10.8740000  29.3060000   9.8780000  11.9780000  29.0030000
   9.5000000  12.9700000  29.2010000  11.0370000  11.6900000  28.4800000
  11.0490000  10.3030000  28.4230000  12.0530000   9.4170000  27.9500000
  13.1600000   9.7010000  27.4700000  11.6740000   8.0790000  28.0730000
  12.3160000   7.3770000  27.7640000  10.4700000   7.6530000  28.5920000
  10.2780000   6.3280000  28.6300000  10.9140000   5.6120000  28.3100000
   9.3940000   6.0110000  29.0010000   9.5220000   8.4720000  29.0400000
   9.8730000   9.7820000  28.9280000   6.2220000  12.4290000  30.9040000
   6.1900000  13.3960000  31.4060000   7.6100000  11.7940000  31.1010000
   8.1070000  12.7590000  31.2020000   7.7380000  11.0690000  32.3110000
   8.6770000  10.9530000  32.4700000   5.2800000  12.1910000  31.9950000
   4.4280000  10.8570000  32.2760000   3.6270000  11.1060000  33.4950000
   5.3510000   9.7020000  32.2560000   3.4310000  10.7560000  31.0220000
   2.0350000  10.4670000  31.1550000   1.5350000  10.9900000  30.3400000
   1.6650000  10.8430000  32.1090000   1.7340000   8.9790000  31.0530000
   0.7440000   8.8460000  30.6160000   2.6330000   8.3360000  30.1180000
   2.8310000   6.9960000  30.5200000   2.1470000   6.3370000  29.9850000
   4.1840000   6.5060000  30.0840000   5.2380000   7.4030000  29.9770000
   5.0570000   8.4330000  30.2460000   6.4760000   7.0410000  29.6070000
   7.2870000   7.7650000  29.5280000   6.7390000   5.6540000  29.3070000
   7.8220000   5.1940000  28.9590000   5.6460000   4.8110000  29.4390000
   5.8230000   3.7600000  29.2110000   4.3690000   5.1570000  29.8180000
   3.4860000   4.3180000  29.8980000   1.8860000   8.2310000  32.3780000
   2.1080000   8.5410000  33.3990000   2.6880000   6.9640000  32.0420000
   3.4860000   7.2180000  32.7400000   2.0690000   5.7600000  32.4530000
   2.7480000   5.0820000  32.4550000   0.6250000   7.9790000  33.0630000
  -0.7640000   7.5350000  32.3850000  -1.6950000   7.2270000  33.4930000
  -0.5000000   6.5040000  31.3540000  -1.2850000   8.8780000  31.6890000
  -2.5190000   8.8820000  30.9820000  -3.2820000   9.2230000  31.6820000
  -2.7620000   7.8750000  30.6430000  -2.4850000   9.8170000  29.7850000
  -2.8260000  10.8040000  30.0980000  -1.1220000  10.0300000  29.3330000
  -1.0390000   9.9220000  27.9230000  -0.5330000  10.7520000  27.4310000
  -0.1700000   8.7790000  27.6200000  -0.4820000   7.4460000  27.6570000
  -1.4940000   7.1390000  27.8770000   0.5150000   6.6520000  27.3490000
   1.5620000   7.5210000  27.0970000   2.9090000   7.3140000  26.7210000
   3.4410000   6.1030000  26.5200000   4.4110000   6.0160000  26.2520000
   2.8730000   5.2760000  26.6360000   3.6920000   8.4030000  26.5490000
   3.1620000   9.6190000  26.7480000   3.7640000  10.5070000  26.6250000
   1.9150000   9.9370000  27.1010000   1.1570000   8.8360000  27.2630000
  -3.2500000   9.2960000  28.5770000  -3.7810000   8.3930000  28.2750000
  -2.4690000   9.8510000  27.3860000  -2.8210000   9.1150000  26.6630000
  -2.9070000  11.1400000  26.9980000  -2.5370000  11.3130000  26.1290000
  -4.5910000   9.7700000  28.6220000  -5.7940000   8.8720000  28.0620000
  -7.0610000   9.4760000  28.5360000  -5.5030000   7.4530000  28.3720000
  -5.6870000   9.0830000  26.4790000  -5.9880000  10.3440000  25.8840000
  -5.4960000  11.1020000  26.4940000  -7.0620000  10.5310000  25.8690000
  -5.4480000  10.4180000  24.4640000  -5.5220000  11.4560000  24.1390000
  -4.0210000  10.1360000  24.4610000  -3.7550000   9.2440000  23.3990000
  -3.6080000   9.7810000  22.4620000  -2.4700000   8.5590000  23.5930000
  -2.2530000   7.2730000  24.0130000  -3.0940000   6.6240000  24.2070000
  -0.9870000   6.9350000  24.0800000  -0.3190000   8.0770000  23.6740000
   1.0540000   8.3790000  23.5240000   2.0310000   7.5050000  23.7790000
   2.9960000   7.7760000  23.6540000   1.8050000   6.5730000  24.0970000
   1.3880000   9.6190000  23.0950000   0.4110000  10.5020000  22.8340000
   0.6440000  11.4990000  22.4910000  -0.9100000  10.3320000  22.9390000
  -1.2160000   9.0890000  23.3680000  -6.0710000   9.4490000  23.4590000
  -7.0350000   9.0350000  23.1630000  -4.9990000   8.3630000  23.3660000
  -5.3350000   7.7560000  24.2070000  -5.0470000   7.5940000  22.1830000
  -4.4650000   6.8420000  22.3130000  -6.2590000  10.1310000  22.2190000
  -7.4880000   9.8350000  21.2300000  -8.4500000  10.9470000  21.3940000
  -7.9440000   8.4380000  21.4190000  -6.8210000   9.9640000  19.7780000
  -5.7190000   9.1420000  19.3820000  -6.0180000   8.4980000  18.5550000
  -5.4230000   8.5270000  20.2320000  -4.5400000   9.9970000  18.9490000
  -4.9040000  10.9970000  18.7160000  -3.6260000  10.1930000  20.0670000
  -2.2860000  10.1490000  19.5960000  -1.6830000  10.9050000  20.0990000
  -1.6310000   8.8920000  19.9840000  -2.2180000   7.7800000  20.5280000
  -3.2870000   7.7630000  20.6800000  -1.3910000   6.7910000  20.7610000
  -0.1690000   7.2750000  20.3300000   1.1250000   6.7050000  20.3040000
   1.3950000   5.4700000  20.7430000   2.3390000   5.1140000  20.7000000
   0.6550000   4.8940000  21.1170000   2.1360000   7.4550000  19.8090000
   1.8670000   8.6940000  19.3720000   2.6540000   9.3170000  18.9730000
   0.6950000   9.3350000  19.3470000  -0.2960000   8.5670000  19.8440000
  -3.6330000   9.4100000  17.8710000  -3.3410000   8.4360000  17.4770000
  -2.3920000  10.2670000  18.0770000  -1.7170000   9.7550000  17.3910000
  -2.5610000  11.6090000  17.6580000  -1.6920000  12.0180000  17.6670000
  -4.1460000   9.5140000  16.5490000  -4.2890000   8.1880000  15.6570000
  -5.4920000   8.3680000  14.8130000  -4.1880000   7.0060000  16.5420000
  -3.0460000   8.2250000  14.6460000  -1.7490000   7.7750000  15.0140000
  -1.3900000   7.0700000  14.2640000  -1.7740000   7.2870000  15.9880000
  -0.8060000   8.9620000  15.0750000  -1.3820000   9.8580000  15.3040000
   0.0820000   8.8010000  16.2100000   1.3920000   9.2090000  15.8550000
   1.8250000   9.8700000  16.6060000   2.3340000   8.0200000  15.8620000
   1.8250000   6.7430000  16.0540000   0.7550000   6.6350000  16.1480000
   2.5890000   5.6410000  16.0760000   2.1610000   4.6510000  16.2300000
   4.0120000   5.7710000  15.8940000   4.8190000   4.8470000  15.8950000
   4.4570000   7.0680000  15.7090000   5.5310000   7.1870000  15.5630000
   3.6970000   8.2160000  15.6840000   4.2150000   9.3080000  15.5110000
   0.1180000   9.1450000  13.8770000   0.4830000   8.5990000  13.0070000
   1.2670000   9.9190000  14.5090000   1.9790000   9.8110000  13.6910000
   0.9700000  11.2910000  14.6970000   1.7970000  11.7310000  14.9050000
  -0.5140000   9.8990000  12.8500000  -0.0580000   9.7510000  11.3200000
  -1.0460000  10.4930000  10.5010000   0.2060000   8.3220000  11.0340000
   1.3340000  10.5400000  11.2710000   1.3870000  11.9620000  11.3780000
   0.9580000  12.2760000  12.3300000   0.8150000  12.4010000  10.5600000
   2.8230000  12.4410000  11.2960000   2.8600000  13.5180000  11.4600000
   3.5810000  11.8790000  12.3990000   4.8800000  11.5100000  11.9650000
   5.6080000  11.8820000  12.6850000   5.0350000  10.0550000  12.0360000
   4.0530000   9.1260000  12.2860000   3.0350000   9.4440000  12.4590000
   4.4820000   7.8960000  12.2890000   5.8410000   8.0090000  12.0210000
   6.8420000   7.0070000  11.9020000   6.7140000   5.7800000  12.0090000
   8.1000000   7.5480000  11.6260000   8.8710000   6.9200000  11.5240000
   8.3550000   8.8930000  11.4820000   9.6210000   9.2350000  11.2150000
  10.4110000   8.6130000  11.1190000   9.8110000  10.2220000  11.1180000
   7.4310000   9.8400000  11.5910000   6.1980000   9.3330000  11.8620000
   3.5910000  11.9970000  10.0580000   3.5170000  11.2630000   9.2550000
   5.0360000  12.0660000  10.5540000   5.4870000  11.5250000   9.7230000
   5.5670000  13.3790000  10.6060000   6.5150000  13.2940000  10.7310000
   3.3370000  12.8710000   8.9610000   3.3350000  12.3230000   7.4590000
   2.9580000  13.4570000   6.5850000   2.5510000  11.0690000   7.4100000
   4.8670000  11.9540000   7.1800000   5.8870000  12.9510000   7.1040000
   5.8230000  13.6050000   7.9740000   5.7430000  13.5380000   6.1970000
   7.2600000  12.3030000   7.0660000   8.0220000  13.0770000   7.1590000
   7.4300000  11.4810000   8.2500000   8.2060000  10.3350000   7.9260000
   9.0610000  10.2370000   8.5950000   7.4300000   9.0550000   8.1730000
   6.0420000   9.0780000   8.2130000   5.5440000  10.0160000   8.0180000
   5.2970000   7.9860000   8.4300000   4.2080000   8.0350000   8.4580000
   5.9520000   6.7130000   8.6370000   5.3790000   5.6450000   8.8480000
   7.3400000   6.7590000   8.5880000   7.8600000   5.8150000   8.7520000
   8.1250000   7.8680000   8.3620000   9.3400000   7.7900000   8.3410000
   7.5220000  11.3360000   5.9120000   6.9780000  10.7340000   5.1840000
   8.6760000  10.5200000   6.4860000   8.6820000   9.7340000   5.7300000
   9.9190000  11.2010000   6.4680000  10.5980000  10.5500000   6.6590000
   7.8920000  12.0300000   4.7280000   7.7490000  11.3820000   3.2670000
   7.9980000  12.4990000   2.3270000   6.4860000  10.6150000   3.1950000
   8.9640000  10.3420000   3.1480000  10.3070000  10.7520000   2.8900000
  10.5650000  11.5690000   3.5640000  10.3780000  11.0970000   1.8580000
  11.2810000   9.6020000   3.1010000  12.2920000  10.0050000   3.1680000
  11.0420000   9.0020000   4.4000000  11.2460000   7.5970000   4.3380000
  11.9540000   7.3130000   5.1160000   9.9880000   6.8470000   4.7090000
   8.7700000   7.4650000   4.6250000   8.7200000   8.4890000   4.2850000
   7.6350000   6.8340000   4.9530000   6.6840000   7.3620000   4.8760000
   7.7420000   5.4810000   5.3960000   6.6420000   4.8040000   5.7380000
   6.7550000   3.8490000   6.0470000   5.7350000   5.2460000   5.6840000
   8.9230000   4.8600000   5.4840000  10.0690000   5.5120000   5.1500000
  11.1700000   4.9520000   5.2270000  11.1640000   8.4280000   2.1320000
  10.4540000   8.0270000   1.4090000  11.7670000   7.2840000   2.9410000
  11.4040000   6.4700000   2.3130000  13.1840000   7.2830000   2.9430000
  13.4640000   6.4340000   3.2920000  11.9090000   8.6560000   0.9440000
  11.4780000   7.9470000  -0.4210000  12.2620000   8.5770000  -1.5090000
   9.9960000   7.9250000  -0.4760000  11.9930000   6.4430000  -0.2620000
  13.3820000   6.1170000  -0.2070000  13.8940000   6.7110000   0.5500000
  13.8210000   6.3190000  -1.1840000  13.5460000   4.6440000   0.1190000
  14.6040000   4.3980000   0.2120000  12.9890000   4.3550000   1.4280000
  12.4600000   3.0330000   1.4390000  12.9300000   2.4830000   2.2540000
  10.9920000   3.0430000   1.8130000  10.2690000   4.2010000   1.6930000
  10.7530000   5.0960000   1.3300000   8.9720000   4.2510000   2.0160000
   8.4330000   5.1930000   1.9090000   8.3590000   3.0510000   2.4900000
   7.0670000   3.0570000   2.8250000   6.6640000   2.1920000   3.1560000
   6.5240000   3.9050000   2.7440000   9.0430000   1.9060000   2.6130000
  10.3640000   1.8670000   2.2810000  11.0120000   0.8200000   2.3870000
  12.7770000   3.6960000  -0.7910000  11.9270000   3.6970000  -1.4730000
  12.7410000   2.4340000   0.0640000  12.0080000   1.8890000  -0.5300000
  13.9640000   1.7160000   0.0790000  13.7810000   0.8580000   0.4680000
  13.4550000   3.5140000  -2.0230000  12.6140000   3.2800000  -3.3650000
  13.5630000   3.3190000  -4.5000000  11.4410000   4.1850000  -3.3500000
  12.1100000   1.7730000  -3.2190000  13.0400000   0.6990000  -3.1960000
  13.8620000   0.8880000  -2.5060000  13.4340000   0.5800000  -4.2060000
  12.3290000  -0.5720000  -2.7870000  13.0290000  -1.4050000  -2.7240000
  11.8110000  -0.4320000  -1.4460000  10.6170000  -1.1780000  -1.3100000
  10.7150000  -1.8500000  -0.4570000   9.5260000  -0.2850000  -0.9230000
   9.4130000   1.0660000  -1.1560000  10.1950000   1.5970000  -1.6780000
   8.3110000   1.5860000  -0.6920000   7.6470000   0.5190000  -0.1080000
   6.3970000   0.4680000   0.5620000   5.6050000   1.4000000   0.7750000
   6.0920000  -0.8240000   1.0020000   5.2310000  -0.9630000   1.4910000
   6.8990000  -1.9270000   0.8120000   6.4610000  -3.1020000   1.2940000
   5.6010000  -3.2700000   1.7970000   7.0650000  -3.9000000   1.1560000
   8.0720000  -1.8880000   0.1890000   8.3840000  -0.6390000  -0.2410000
  11.0800000  -0.8840000  -3.5880000  10.3320000  -0.3860000  -4.2040000
  10.3890000  -1.8740000  -2.6480000   9.4350000  -1.9260000  -3.1730000
  10.9780000  -3.1640000  -2.6100000  10.3650000  -3.7390000  -2.1450000
  11.4430000  -1.4090000  -4.8590000  10.4200000  -1.3960000  -6.0910000
  11.2170000  -1.3440000  -7.3390000   9.3610000  -0.3820000  -5.8550000
   9.8010000  -2.8690000  -5.9660000   8.7150000  -3.2540000  -6.8110000
   9.1040000  -3.7620000  -7.6930000   8.1770000  -2.3570000  -7.1170000
   7.7620000  -4.1820000  -6.0810000   8.3270000  -4.9420000  -5.5410000
   7.0540000  -3.4520000  -5.0460000   5.7300000  -3.9430000  -4.9280000
   5.4800000  -4.2500000  -3.9120000   4.7800000  -2.8600000  -5.1880000
   5.0280000  -1.6640000  -5.8070000   6.0090000  -1.4650000  -6.2130000
   3.9810000  -0.8750000  -5.8960000   2.9720000  -1.6040000  -5.2920000
   1.6110000  -1.3320000  -5.0530000   1.0080000  -0.2020000  -5.4180000
   0.0270000  -0.0650000  -5.2180000   1.5310000   0.5180000  -5.8950000
   0.8780000  -2.2710000  -4.4280000   1.4670000  -3.4130000  -4.0580000
   0.9070000  -4.1860000  -3.5540000   2.7370000  -3.7800000  -4.2250000
   3.4450000  -2.8270000  -4.8520000   6.6530000  -4.7610000  -6.9420000
   6.1630000  -4.6180000  -7.9050000   5.6090000  -5.1180000  -5.8880000
   4.7820000  -5.2550000  -6.5850000   5.8700000  -6.3400000  -5.2200000
   5.0670000  -6.5810000  -4.7520000   7.1220000  -5.9020000  -7.6380000
   6.5390000  -6.2930000  -9.0790000   7.2850000  -7.4950000  -9.5240000
   6.5150000  -5.0880000  -9.9360000   5.0260000  -6.7180000  -8.7730000
   4.6990000  -7.9250000  -8.0850000   5.3570000  -8.0400000  -7.2240000
   4.8300000  -8.7730000  -8.7570000   3.2560000  -7.8830000  -7.6090000
   3.0810000  -8.7250000  -6.9390000   3.0350000  -6.7080000  -6.7830000
   1.7290000  -6.1960000  -6.9920000   1.2350000  -6.1170000  -6.0240000
   1.7580000  -4.7600000  -7.5000000   2.8920000  -4.2520000  -8.0820000
   3.7650000  -4.8800000  -8.1810000   2.9450000  -2.9870000  -8.5340000
   3.8650000  -2.6200000  -8.9890000   1.7700000  -2.1820000  -8.3880000
   1.7450000  -0.9120000  -8.8090000   0.8890000  -0.3910000  -8.6800000
   2.5620000  -0.5020000  -9.2390000   0.6600000  -2.6620000  -7.8300000
   0.6170000  -3.9390000  -7.3710000  -0.4180000  -4.3740000  -6.8520000
   2.2060000  -7.7600000  -8.7050000   2.1040000  -7.4930000  -9.7570000
   1.0280000  -7.1870000  -7.9180000   0.4200000  -6.9070000  -8.7780000
   0.3400000  -8.1630000  -7.1500000  -0.4870000  -7.7660000  -6.8670000
   1.9150000  -9.0420000  -9.2390000   1.3820000  -9.2300000 -10.7370000
   1.1740000 -10.6800000 -10.9440000   2.2750000  -8.4880000 -11.6480000
  -0.0450000  -8.4930000 -10.7350000  -1.2400000  -9.1010000 -10.2210000
  -1.0950000  -9.3700000  -9.1750000  -1.4480000 -10.0000000 -10.8010000
  -2.4210000  -8.1480000 -10.3340000  -3.2930000  -8.6170000  -9.8790000
  -2.1890000  -6.9520000  -9.5310000  -2.7340000  -5.8080000 -10.1850000
  -3.3650000  -5.2400000  -9.5020000  -1.6540000  -4.7990000 -10.5750000
  -0.3400000  -5.2210000 -10.7100000  -0.1300000  -6.2720000 -10.5760000
   0.6660000  -4.4000000 -11.0480000   1.6890000  -4.7620000 -11.1490000
   0.3850000  -3.0020000 -11.2880000   1.2140000  -2.1560000 -11.6040000
  -0.9440000  -2.6420000 -11.1390000  -1.1760000  -1.5910000 -11.3120000
  -1.9960000  -3.4610000 -10.7940000  -3.1300000  -3.0050000 -10.6940000
  -2.6900000  -7.5760000 -11.7220000  -2.1490000  -7.3840000 -12.6480000
  -3.5340000  -6.3550000 -11.3630000  -3.5900000  -5.8950000 -12.3500000
  -4.8390000  -6.6930000 -10.9260000  -5.3440000  -5.8770000 -10.8930000
  -3.3700000  -8.5070000 -12.5530000  -3.1630000  -8.4960000 -14.1460000
  -3.7120000  -9.7630000 -14.6740000  -1.7660000  -8.1190000 -14.4300000
  -4.0900000  -7.3020000 -14.6380000  -5.5010000  -7.3030000 -14.4330000
  -5.7720000  -7.5350000 -13.4030000  -5.9400000  -8.0450000 -15.1000000
  -6.0360000  -5.9340000 -14.7920000  -7.1030000  -5.8540000 -14.5840000
  -5.4220000  -4.9560000 -13.9180000  -5.2540000  -3.7270000 -14.6120000
  -5.7560000  -2.8850000 -14.1350000  -3.8430000  -3.3440000 -14.5560000
  -2.7870000  -4.1700000 -14.2900000  -2.9570000  -5.2280000 -14.1520000
  -1.6220000  -3.5710000 -14.2890000  -1.9320000  -2.2540000 -14.5730000
  -1.1350000  -1.1000000 -14.7160000   0.1850000  -1.1150000 -14.5770000
   0.7140000  -0.2620000 -14.6890000   0.6600000  -1.9790000 -14.3590000
  -1.7500000   0.0680000 -15.0130000  -3.0820000   0.0840000 -15.1490000
  -3.6100000   0.9970000 -15.3830000  -3.9300000  -0.9370000 -15.0310000
  -3.2960000  -2.0900000 -14.7410000  -5.6490000  -5.4430000 -16.1810000
  -4.9140000  -5.6540000 -16.9580000  -5.8020000  -3.9310000 -16.0220000
  -5.2830000  -3.6360000 -16.9340000  -7.1500000  -3.5040000 -16.0880000
  -7.1380000  -2.5480000 -16.1780000  -6.5160000  -5.9820000 -17.1790000
  -6.0150000  -6.2050000 -18.6880000  -7.0400000  -7.0280000 -19.3670000
  -4.6070000  -6.6520000 -18.6680000  -6.0390000  -4.7470000 -19.3080000
  -7.2540000  -4.1060000 -19.6020000  -7.9340000  -4.0770000 -18.7500000
  -7.7300000  -4.6340000 -20.4280000  -6.9360000  -2.6940000 -20.0320000
  -7.8460000  -2.1460000 -20.2770000  -6.3600000  -1.9630000 -18.9150000
  -5.3910000  -1.0540000 -19.4120000  -5.5650000  -0.0580000 -19.0060000
  -3.9910000  -1.3890000 -18.9100000  -3.5700000  -2.7050000 -18.7240000
  -4.2560000  -3.4980000 -18.9850000  -2.3420000  -3.0310000 -18.2880000
  -2.0390000  -4.0660000 -18.1300000  -1.4030000  -1.9700000 -18.0060000
  -0.2550000  -2.1250000 -17.6010000  -1.8860000  -0.6830000 -18.2100000
  -1.1960000   0.1330000 -17.9940000  -3.1400000  -0.3330000 -18.6560000
  -3.4700000   0.8270000 -18.8150000  -5.8520000  -2.5820000 -21.0910000
  -4.9760000  -3.1200000 -21.4550000  -5.5120000  -1.1040000 -20.9340000
  -4.6640000  -1.0440000 -21.6160000  -6.5370000  -0.2450000 -21.3820000
  -6.1730000   0.6430000 -21.3940000  -6.3220000  -2.9600000 -22.3730000
  -5.3360000  -3.5930000 -23.4680000  -6.1660000  -3.9570000 -24.6400000
  -4.4610000  -4.6160000 -22.8500000  -4.4480000  -2.3190000 -23.8380000
  -4.9710000  -1.2580000 -24.6280000  -5.8830000  -0.8540000 -24.1880000
  -5.1880000  -1.6420000 -25.6250000  -3.9370000  -0.1530000 -24.7340000
  -4.3810000   0.7310000 -25.1930000  -3.5600000   0.2790000 -23.4060000
  -2.1950000   0.6790000 -23.4080000  -2.1540000   1.6440000 -22.9030000
  -1.4010000  -0.1920000 -22.5510000  -1.7490000  -1.4260000 -22.0370000
  -2.7210000  -1.8530000 -22.2340000  -0.8020000  -1.9710000 -21.3230000
   0.2410000  -1.0440000 -21.3770000   1.5350000  -1.0710000 -20.7980000
   2.0270000  -1.9550000 -20.0910000   2.2860000   0.0640000 -21.0960000
   3.2080000   0.1340000 -20.7160000   1.8420000   1.1060000 -21.8740000
   2.6940000   2.1210000 -22.0690000   3.6280000   2.2110000 -21.6960000
   2.3600000   2.8880000 -22.6340000   0.6300000   1.1510000 -22.4190000
  -0.1140000   0.0520000 -22.1300000  -2.6040000  -0.5570000 -25.3560000
  -2.0030000  -1.4400000 -25.5710000  -1.7010000   0.5610000 -24.8490000
  -0.7490000   0.1050000 -25.1200000  -1.8630000   1.7740000 -25.5610000
  -1.1310000   2.3440000 -25.3150000  -2.6800000  -0.5860000 -26.7680000
  -1.7160000  -1.5550000 -27.6020000  -2.1570000  -1.5170000 -29.0230000
  -1.6270000  -2.8580000 -26.8910000  -0.3060000  -0.8000000 -27.4910000
  -0.1050000   0.4470000 -28.1580000  -0.8840000   1.1630000 -27.8970000
  -0.1450000   0.2410000 -29.2280000   1.2480000   1.0360000 -27.8150000
   1.2970000   2.0680000 -28.1640000   1.3780000   1.1330000 -26.3760000
   2.7550000   1.0670000 -26.0270000   3.0150000   1.9540000 -25.4490000
   2.9770000  -0.0360000 -25.0890000   2.0600000  -0.9840000 -24.7010000
   1.0550000  -0.9670000 -25.0970000   2.5310000  -1.8460000 -23.8490000
   3.8550000  -1.4510000 -23.6580000   4.8770000  -2.0090000 -22.8410000
   4.8190000  -3.0020000 -22.0990000   6.0790000  -1.3080000 -22.9450000
   6.8560000  -1.6360000 -22.4080000   6.2770000  -0.1980000 -23.7340000
   7.5060000   0.3400000 -23.6970000   8.2910000   0.0240000 -23.1460000
   7.6570000   1.1600000 -24.2670000   5.3290000   0.3360000 -24.5020000
   4.1460000  -0.3360000 -24.4170000   2.4660000   0.2010000 -28.1760000
   2.7580000  -0.8410000 -28.3070000   3.5170000   0.9220000 -27.3400000
   4.3470000   0.2340000 -27.5010000   3.8600000   2.2020000 -27.8450000
   4.6400000   2.4930000 -27.3670000   2.7610000   0.2320000 -29.5700000
   3.2290000  -1.1200000 -30.2900000   2.8970000  -0.9940000 -31.7240000
   2.6880000  -2.2770000 -29.5450000   4.8190000  -1.1700000 -30.1080000
   5.6610000  -0.0130000 -30.0610000   5.1400000   0.8030000 -29.5610000
   5.9130000   0.2860000 -31.0780000   6.9420000  -0.3290000 -29.3010000
   7.6500000   0.4900000 -29.4260000   6.6740000  -0.3640000 -27.8760000
   7.5030000  -1.3460000 -27.2640000   8.0980000  -0.9010000 -26.4660000
   6.6920000  -2.3890000 -26.5410000   5.3670000  -2.6020000 -26.8880000
   4.9520000  -2.0260000 -27.7020000   4.5980000  -3.5230000 -26.2940000
   3.5630000  -3.6920000 -26.5900000   5.1650000  -4.3180000 -25.2330000
   4.5750000  -5.1870000 -24.6010000   6.4900000  -4.0540000 -24.9340000
   6.9290000  -4.6470000 -24.1320000   7.3030000  -3.1280000 -25.5320000
   8.4640000  -2.9860000 -25.1790000   7.5500000  -1.7000000 -29.5900000
   7.2410000  -2.6500000 -30.0260000   8.3940000  -1.9620000 -28.3440000
   8.4940000  -3.0340000 -28.5130000   9.6810000  -1.3620000 -28.3410000
  10.1800000  -1.7730000 -27.6310000   8.3120000  -1.7070000 -30.8000000
   8.4710000  -3.0730000 -31.6030000   9.1760000  -2.3860000 -32.7450000
   7.0600000  -3.5650000 -31.8080000   9.3890000  -4.2640000 -31.0460000
  10.8150000  -4.1350000 -31.0690000  11.0870000  -3.1230000 -30.7710000
  11.1670000  -4.3220000 -32.0830000  11.4710000  -5.1300000 -30.1200000
  12.5300000  -4.9150000 -29.9750000  10.8990000  -4.9810000 -28.8340000
  10.9870000  -6.2340000 -28.1670000  11.6800000  -6.1050000 -27.3360000
   9.7090000  -6.5140000 -27.5110000   8.6300000  -6.1110000 -27.9240000
   8.7040000  -5.2700000 -28.5970000   7.3380000  -6.6330000 -27.6080000
   6.5720000  -6.5410000 -28.3780000   7.1170000  -7.1890000 -26.4410000
   5.9130000  -7.4450000 -25.8950000   5.8940000  -7.8800000 -24.9840000
   5.0670000  -7.2050000 -26.3920000   8.3000000  -7.4860000 -25.8290000
   9.5420000  -7.2880000 -26.3980000  10.5100000  -7.8330000 -25.8930000
  11.2200000  -6.5790000 -30.5150000  10.4280000  -6.9470000 -31.1660000
  11.1960000  -7.3770000 -29.1550000  10.5260000  -8.1460000 -29.5390000
  12.3030000  -7.9940000 -28.5080000  11.9490000  -8.5250000 -27.7910000
  12.0410000  -6.8070000 -31.6520000  11.9880000  -7.6930000 -32.0190000
   8.6980000   7.4190000  -8.8490000  -7.3020000 -12.5810000   4.1510000
  -6.3020000  15.4190000  13.1510000   3.6980000 -10.5810000  15.1510000
 -19.3020000  -2.5810000  -6.8490000 -14.3020000   7.4190000  24.1510000
   7.6980000  12.4190000  -4.8490000  -1.3020000 -12.5810000   6.1510000
  -3.3020000  16.4190000   4.1510000  -1.3020000 -10.5810000 -24.8490000
  14.6980000  -7.5810000  -8.8490000  -5.3020000   1.4190000  33.1510000
 -15.3020000 -10.5810000  -0.8490000  11.6980000  -8.5810000  16.1510000
  -7.3020000  15.4190000  -8.8490000  18.6980000   1.4190000  20.1510000
   5.6980000 -15.5810000  -9.8490000 -20.3020000   4.4190000  -9.8490000
  13.6980000   5.4190000 -10.8490000 -12.3020000  14.4190000  17.1510000
   2.6980000  -9.5810000  23.1510000   2.6980000  14.4190000 -10.8490000
  -6.3020000 -14.5810000 -10.8490000  -8.3020000  12.4190000 -18.8490000
   1.6980000  17.4190000  18.1510000   3.6980000 -11.5810000  -0.8490000
 -11.3020000   3.4190000  30.1510000  18.6980000   8.4190000  23.1510000
 -14.3020000  -4.5810000 -19.8490000   3.6980000  -0.5810000  35.1510000
 -14.3020000  14.4190000   1.1510000  -1.3020000  -7.5810000 -31.8490000
  14.6980000  17.4190000  25.1510000 -17.3020000  10.4190000 -12.8490000
   2.6980000  16.4190000   0.1510000  -9.3020000  -8.5810000  29.1510000
  16.6980000   0.4190000 -10.8490000 -24.3020000   4.4190000   4.1510000
 -11.3020000 -15.5810000  12.1510000  -8.3020000 -18.5810000   9.1510000
  -4.3020000 -20.5810000  10.1510000  -1.3020000  17.4190000  29.1510000
  16.6980000  -8.5810000   9.1510000  14.6980000  15.4190000   9.1510000
  -8.3020000 -13.5810000 -17.8490000  -6.3020000   3.4190000 -30.8490000
 -22.3020000   9.4190000  19.1510000   7.6980000  13.4190000 -20.8490000
  10.6980000   1.4190000  34.1510000 -25.3020000  -5.5810000   3.1510000
   5.6980000   0.4190000 -37.8490000  20.6980000   4.4190000   4.1510000
 -21.3020000  -4.5810000  24.1510000 -11.3020000  18.4190000 -14.8490000
  -1.3020000  12.4190000  38.1510000  16.6980000  -4.5810000  18.1510000
  14.6980000 -15.5810000 -13.8490000  16.6980000  -2.5810000 -24.8490000
 -19.3020000  -8.5810000 -10.8490000   9.6980000  20.4190000  17.1510000
  24.6980000   0.4190000  -4.8490000   5.6980000  -7.5810000  31.1510000
 -18.3020000  15.4190000  11.1510000 -18.3020000  -8.5810000  16.1510000
  10.6980000  -9.5810000   0.1510000   0.6980000   8.4190000 -26.8490000
  15.6980000  14.4190000  -0.8490000 -34.4090000 -25.7210000 -40.9550000
  29.4280000  12.1350000 -31.3070000 -11.4340000  11.8310000 -33.0650000
 -34.4090000  -6.8540000  34.4860000  14.2730000  30.5060000  22.1850000
  23.5650000   7.1650000 -22.7130000  20.9780000   8.8640000  15.0570000
  -3.7790000 -31.1120000  31.4510000  22.1060000 -18.1820000  20.5060000
 -31.4280000  -9.2830000 -24.9370000  12.4220000  -4.0790000 -11.6240000
  19.5400000  -4.3270000  -4.4950000  11.3260000  21.3540000  40.3680000
 -15.6140000  19.5520000   1.6460000 -27.5850000  -3.9720000  -7.7060000
 -24.2780000  23.4170000  21.5660000 -19.2970000  20.4800000 -37.2700000
  25.0290000  12.1620000  -8.1510000  35.8530000  -2.9340000   6.2800000
  11.9240000  30.1410000 -16.8810000 -35.6030000 -10.0030000  33.9170000
  12.5290000 -30.2750000   5.3660000   7.1990000 -24.0350000 -23.4380000
  30.1860000  21.3540000  40.3680000  15.3800000 -29.8600000  23.1830000
 -15.8210000  16.9810000 -15.5200000  -1.8690000 -20.3730000  31.8380000
  19.7000000  31.0180000 -47.8060000 -12.5680000  28.4510000  12.7830000
  26.0610000   6.9390000 -42.6730000 -10.4050000  22.7050000  10.3060000
  31.5970000  -9.2750000 -22.8370000  -1.7750000 -27.0920000 -41.9090000
 -20.4090000  13.0070000  -5.6990000  17.3120000 -24.7270000  -5.6990000
 -18.1800000  14.5400000 -23.3550000 -31.8510000  16.2350000 -46.2240000
 -26.0420000  -1.0760000  19.1930000  34.2400000  26.7410000  23.1830000
   8.6200000   4.2150000 -43.5100000 -26.7610000  30.0140000 -43.6440000
   0.8950000  17.1540000 -36.8080000 -25.2370000  -3.7350000   0.2660000
  20.7920000  18.0340000  -9.9420000  29.9940000  30.2990000  16.0060000
 -28.0220000   9.6880000   2.0370000  17.3030000   5.3960000 -34.8180000
  -4.7780000 -28.8630000  17.2030000   7.4260000 -25.9030000  23.5150000
  29.9170000 -31.4280000 -21.4950000   4.7050000 -25.7620000   8.0640000
  21.4800000   3.9280000  28.6120000 -23.6380000  27.7380000  36.0630000
 -16.2200000  -3.8550000  37.9960000  14.4940000 -16.4190000 -39.1910000
 -12.4940000 -12.2460000   4.3110000  22.1710000  12.0130000  -3.2350000
  33.2700000  12.5710000  16.8300000 -14.2860000  19.3570000 -28.6270000
 -10.5660000  28.6780000 -12.1820000 -31.5510000 -25.5720000  -8.1510000
  13.8660000   9.4590000  -7.0030000  15.0810000   6.6220000 -43.9890000
 -30.9260000  26.1250000  29.3890000  -0.7120000   0.6850000  -8.3470000
  -1.8110000   0.1260000  -8.2350000  -1.8480000  -1.1940000  -7.7960000
  -2.9940000  -1.9320000  -7.6360000  -2.9720000  -3.3250000  -7.2420000
  -3.4590000  -4.1830000  -8.2640000  -4.2540000  -5.3300000  -8.0530000
  -5.6160000  -5.2210000  -8.2710000  -6.4380000  -6.3420000  -8.1220000
  -5.8650000  -7.5630000  -7.7490000  -4.4920000  -7.6280000  -7.5370000
  -3.6840000  -6.5280000  -7.6850000  -4.2160000  -1.4700000  -7.8810000
  -4.1990000  -0.1780000  -8.3080000  -3.1100000   0.6400000  -8.4990000
  -3.5190000   1.8870000  -8.9550000  -4.8150000   1.8080000  -9.0310000
  -5.2980000   0.5840000  -8.6480000  -0.9182267  -1.5922224  -7.5842299
  -2.6370183  -3.6511419  -6.3162167  -3.2199416  -3.9810961  -9.2825980
  -6.0453369  -4.2722631  -8.5518080  -7.5084027  -6.3031191  -8.2876754
  -6.5032058  -8.4463119  -7.6331750  -4.0658648  -8.5759081  -7.2532325
  -2.5943380  -6.5784840  -7.5122195  -5.3817865   2.6709450  -9.3784506
  -6.3095781   0.2847138  -8.6252929  24.0610000  27.9630000  40.0680000
  23.9070000  28.4200000  40.8950000  24.7730000  27.3530000  40.2600000
  24.1320000  27.9430000  40.1980000  27.5340000  22.0450000  39.4300000
  27.2680000  21.5820000  40.2240000  27.5500000  21.3680000  38.7530000
  27.5020000  21.8990000  39.4450000  30.6450000  30.1850000  39.7320000
  31.4150000  30.2060000  40.2990000  30.9640000  29.8180000  38.9090000
  30.7840000  30.1410000  39.6990000  34.7060000  21.8520000  40.5670000
  34.8380000  21.7080000  41.5050000  33.8380000  22.2510000  40.5070000
  34.6120000  21.8840000  40.6800000  23.4680000  24.1690000  44.8400000
  23.0610000  24.1680000  43.9730000  22.9820000  24.8320000  45.3320000
  23.3540000  24.2540000  44.7930000  22.8950000  21.3560000  43.5580000
  22.1370000  21.3430000  44.1430000  23.4270000  20.6120000  43.8390000
  22.8660000  21.2590000  43.6690000  27.5550000  25.5550000  43.3890000
  26.7300000  25.5370000  42.9040000  27.3040000  25.3690000  44.2940000
  27.4170000  25.5290000  43.4430000  22.3800000  27.1770000  38.0590000
  21.7770000  27.9140000  37.9640000  23.0090000  27.4670000  38.7200000
  22.3830000  27.3080000  38.1320000  25.5300000  26.1300000  48.3340000
  26.4110000  26.4220000  48.5670000  25.6160000  25.7960000  47.4420000
  25.6540000  26.1250000  48.2500000  29.8270000  21.9490000  46.5180000
  28.8750000  21.8860000  46.5890000  30.1550000  21.2210000  47.0470000
  29.7470000  21.8480000  46.5950000  34.9560000  29.9570000  48.6400000
  35.3960000  30.4640000  49.3230000  34.2840000  29.4600000  49.1070000
  34.9270000  29.9580000  48.7870000  32.3060000  23.2740000  40.3820000
  32.4100000  23.6180000  41.2690000  32.1760000  24.0500000  39.8380000
  32.3030000  23.4170000  40.4270000  34.9480000  24.1220000  47.7090000
  35.8600000  24.1330000  48.0030000  34.9480000  23.5370000  46.9520000
  35.0650000  24.0480000  47.6500000  24.5350000  20.4480000  38.3690000
  24.8770000  20.4570000  39.2630000  24.0500000  21.2700000  38.2910000
  24.5170000  20.5550000  38.4730000  19.7040000  20.3640000  48.2730000
  20.5380000  20.8180000  48.1500000  19.1160000  20.7630000  47.6330000
  19.7360000  20.4730000  48.1770000  27.1380000  24.9590000  46.0230000
  27.2240000  24.1750000  46.5670000  27.5780000  25.6460000  46.5230000
  27.2050000  24.9470000  46.1570000  34.2340000  19.0980000  40.2380000
  34.3620000  20.0130000  39.9860000  33.2850000  19.0030000  40.3220000
  34.1290000  19.2030000  40.2170000  29.3710000  24.3000000  39.5000000
  28.7450000  23.5760000  39.5230000  29.5890000  24.4590000  40.4170000
  29.3190000  24.2280000  39.6190000  33.6680000  22.9820000  45.0890000
  34.3640000  22.5960000  44.5550000  33.0580000  22.2600000  45.2430000
  33.6780000  22.8400000  45.0400000  29.5690000  24.4180000  42.1630000
  28.7460000  24.7010000  42.5590000  30.2470000  24.8040000  42.7180000
  29.5510000  24.5030000  42.2850000  31.5880000  29.5190000  45.7120000
  32.1330000  30.0200000  46.3180000  30.8940000  30.1260000  45.4550000
  31.5690000  29.6600000  45.7570000  19.5710000  31.0850000  46.5320000
  19.9650000  31.0150000  45.6620000  20.1830000  30.6300000  47.1100000
  19.7000000  31.0180000  46.4940000  34.2920000  26.7650000  41.9040000
  34.2490000  27.3840000  42.6350000  33.9260000  25.9540000  42.2570000
  34.2400000  26.7410000  42.0430000  29.0420000  27.6290000  42.3830000
  28.3700000  26.9480000  42.4130000  29.1210000  27.8460000  41.4550000
  28.9660000  27.5700000  42.2680000  25.0920000  31.1220000  48.3300000
  25.0520000  30.1670000  48.2930000  24.6370000  31.3500000  49.1400000
  25.0290000  31.0290000  48.4300000  18.6750000  26.8770000  42.1500000
  19.3400000  27.4770000  42.4880000  17.8430000  27.3110000  42.3390000
  18.6540000  27.0090000  42.2180000  26.4220000  30.0580000  39.4390000
  26.0390000  29.7490000  38.6170000  26.6610000  30.9690000  39.2630000
  26.4040000  30.1350000  39.3120000  20.6780000  21.5130000  45.1170000
  20.4400000  20.6940000  44.6830000  19.9170000  22.0810000  44.9890000
  20.5500000  21.4810000  45.0440000  25.2490000  20.3280000  41.1200000
  25.4940000  19.4530000  41.4220000  25.0340000  20.8050000  41.9220000
  25.2530000  20.2770000  41.2610000  30.4810000  22.0770000  43.6580000
  30.1870000  22.7920000  43.0940000  30.2100000  22.3380000  44.5380000
  30.4090000  22.2020000  43.6980000  22.0870000  24.5930000  39.1540000
  21.1620000  24.3500000  39.1920000  22.0830000  25.5130000  38.8890000
  21.9690000  24.6800000  39.1250000  24.0560000  28.9460000  42.4430000
  24.8790000  29.4320000  42.4050000  24.1070000  28.4510000  43.2600000
  24.1680000  28.9450000  42.5430000  26.3510000  30.5830000  42.4450000
  25.8280000  31.2860000  42.8320000  26.3630000  30.7790000  41.5100000
  26.2860000  30.6980000  42.3750000  33.3940000  25.4500000  38.6100000
  33.8720000  25.0970000  37.8610000  33.8960000  26.2220000  38.8720000
  33.5190000  25.5040000  38.5470000  35.2460000  16.5300000  48.0080000
  35.3920000  16.9350000  48.8630000  34.3010000  16.5980000  47.8690000
  35.1440000  16.5900000  48.1010000  31.3340000  26.6650000  45.7230000
  31.8320000  26.4580000  44.9320000  31.5180000  27.5900000  45.8870000
  31.4210000  26.7570000  45.6420000  25.9590000  25.4110000  39.4640000
  25.4780000  24.5940000  39.3320000  26.3930000  25.5700000  38.6250000
  25.9530000  25.3270000  39.3390000  19.9230000  30.4480000  39.9210000
  20.6900000  30.1250000  40.3970000  19.1810000  30.2090000  40.4760000
  19.9260000  30.3760000  40.0530000  28.6550000  27.2610000  46.3450000
  28.2480000  28.0210000  45.9300000  29.5170000  27.1960000  45.9350000
  28.7130000  27.3500000  46.2390000  33.1920000  28.5000000  43.8270000
  33.8660000  28.9120000  44.3680000  32.3820000  28.9460000  44.0730000
  33.1750000  28.6100000  43.9280000  21.3460000  28.9910000  47.3300000
  22.3030000  28.9750000  47.3120000  21.1010000  28.1770000  47.7700000
  21.4370000  28.8850000  47.3850000  30.1880000  24.4770000  47.6800000
  30.8140000  24.9270000  47.1130000  30.0460000  23.6300000  47.2550000
  30.2500000  24.4260000  47.5530000  22.7470000  24.5150000  42.1530000
  22.6570000  24.2440000  41.2390000  21.8490000  24.6720000  42.4450000
  22.6200000  24.5010000  42.0730000  32.3340000  20.4060000  44.9480000
  31.6720000  20.8120000  44.3880000  33.0290000  20.1430000  44.3450000
  32.3380000  20.4250000  44.8000000  24.6930000  27.4310000  44.5530000
  24.8810000  26.6790000  43.9900000  25.5490000  27.8220000  44.7230000
  24.8260000  27.3850000  44.5030000  23.3400000  19.3010000  46.7120000
  23.5110000  20.2220000  46.9100000  23.9060000  18.8170000  47.3120000
  23.4340000  19.3570000  46.8140000  24.1940000  28.4280000  47.1050000
  24.4510000  28.0100000  46.2820000  24.2780000  27.7360000  47.7600000
  24.2380000  28.2860000  47.0830000  28.5650000  28.4050000  39.7630000
  29.2950000  29.0250000  39.7530000  27.7830000  28.9560000  39.7320000
  28.5580000  28.5550000  39.7570000  28.1970000  25.7860000  48.8800000
  27.7480000  25.0320000  49.2620000  28.9190000  25.4060000  48.3800000
  28.2320000  25.6410000  48.8640000  25.2200000  22.5230000  42.8630000
  25.0720000  23.4660000  42.7840000  24.4280000  22.1910000  43.2870000
  25.1000000  22.6010000  42.9070000  24.4760000  23.0120000  39.4570000
  23.5590000  22.7970000  39.6230000  24.9510000  22.6240000  40.1920000
  24.4190000  22.9350000  39.5720000  30.1830000  28.2000000  48.6780000
  29.9150000  28.8430000  49.3350000  29.3840000  28.0180000  48.1820000
  30.0460000  28.2590000  48.6980000  20.0810000  24.7390000  43.3400000
  20.4810000  25.3240000  43.9850000  19.6170000  25.3240000  42.7420000
  20.0730000  24.8890000  43.3470000  22.0410000  19.4180000  39.3850000
  22.0420000  20.1600000  39.9890000  22.5450000  19.7220000  38.6320000
  22.1060000  19.5520000  39.3670000  20.4710000  26.6750000  48.5280000
  19.6920000  27.1810000  48.7600000  20.2090000  25.7620000  48.6520000
  20.3380000  26.6230000  48.5730000  23.5670000  30.8320000  45.6350000
  23.4800000  31.6120000  46.1830000  23.6390000  30.1080000  46.2570000
  23.5650000  30.8390000  45.7840000  19.1980000  21.9160000  40.8390000
  19.1410000  21.6620000  39.9180000  18.6500000  22.6980000  40.9070000
  19.1200000  21.9840000  40.7300000  24.7510000  19.4890000  44.2700000
  24.3460000  19.1580000  45.0730000  24.8580000  18.7150000  43.7180000
  24.7130000  19.3480000  44.3030000  25.2940000  25.5350000  42.1570000
  25.6670000  25.4700000  41.2780000  24.3890000  25.2390000  42.0550000
  25.2260000  25.4880000  42.0320000  27.4390000  22.4320000  44.5410000
  26.5870000  22.2940000  44.1300000  27.4890000  23.3790000  44.6780000
  27.3370000  22.5360000  44.5070000  28.4840000  26.1030000  37.7800000
  28.4650000  26.7530000  38.4820000  28.8390000  25.3150000  38.1920000
  28.5270000  26.0860000  37.9220000  28.1570000  20.6060000  42.6320000
  27.9320000  21.3910000  43.1320000  29.0560000  20.7580000  42.3400000
  28.2440000  20.7260000  42.6590000  33.5840000  20.3260000  47.5030000
  34.4550000  19.9330000  47.5590000  33.4850000  20.5570000  46.5800000
  33.6830000  20.3050000  47.3920000  33.6090000  24.1910000  42.7500000
  33.3880000  23.9410000  43.6480000  34.4250000  23.7250000  42.5680000
  33.6850000  24.0990000  42.8430000  27.4120000  22.7410000  47.9180000
  26.5610000  22.3100000  47.8300000  27.5110000  22.8880000  48.8580000
  27.3150000  22.7050000  48.0270000  21.3870000  22.8960000  47.5320000
  21.2930000  22.4290000  46.7020000  22.2100000  22.5730000  47.8970000
  21.4800000  22.7950000  47.4730000  20.7450000  28.6530000  42.8170000
  21.7010000  28.6850000  42.8430000  20.4740000  29.5700000  42.8550000
  20.8330000  28.7740000  42.8250000  22.1040000  21.9430000  40.7870000
  22.4120000  22.0080000  41.6920000  21.1860000  21.6850000  40.8670000
  22.0260000  21.9180000  40.9130000  31.4130000  26.2040000  43.1720000
  32.0330000  26.6480000  42.5930000  30.6030000  26.7080000  43.0870000
  31.3890000  26.3260000  43.0870000  27.1240000  28.6670000  44.5440000
  27.6380000  28.0670000  44.0050000  26.8500000  29.3570000  43.9400000
  27.1540000  28.6780000  44.3980000  24.9000000  22.0510000  46.4550000
  24.7220000  22.6410000  45.7230000  25.3850000  21.3240000  46.0650000
  24.9390000  22.0340000  46.3120000  18.5050000  28.6410000  45.0320000
  19.1020000  28.8970000  44.3280000  18.8080000  29.1360000  45.7940000
  18.6200000  28.7370000  45.0400000  34.8740000  29.7380000  45.8180000
  35.7270000  29.3970000  45.5480000  34.8960000  29.7090000  46.7750000
  34.9860000  29.6900000  45.9050000  33.0200000  30.4090000  41.0330000
  33.4160000  30.7500000  41.8350000  33.5110000  30.8280000  40.3270000
  33.1330000  30.5060000  41.0460000  25.3260000  21.4360000  32.4540000
  25.5540000  21.4080000  33.3830000  24.6970000  20.7240000  32.3410000
  25.2750000  21.3410000  32.5590000  23.2420000  19.7220000  31.9600000
  22.6820000  20.1700000  32.5940000  23.0960000  18.7910000  32.1270000
  23.1520000  19.6600000  32.0620000  24.0610000  27.9630000  21.2080000
  23.9070000  28.4200000  22.0350000  24.7730000  27.3530000  21.4000000
  24.1320000  27.9430000  21.3380000  27.4560000  23.1720000  31.8130000
  26.8530000  22.5310000  32.1880000  28.2450000  23.1030000  32.3510000
  27.4800000  23.0820000  31.9300000  27.9940000  19.6090000  38.0910000
  28.8860000  19.3800000  37.8270000  27.4720000  19.4880000  37.2980000
  28.0420000  19.5650000  37.9570000  29.8790000  22.9980000  33.0820000
  30.0570000  22.1160000  33.4070000  30.1980000  23.5780000  33.7730000
  29.9430000  22.9590000  33.2120000  27.5340000  22.0450000  20.5690000
  27.2680000  21.5820000  21.3640000  27.5500000  21.3680000  19.8930000
  27.5020000  21.8990000  20.5850000  27.7690000  29.2330000  33.8530000
  27.6410000  28.3680000  34.2420000  28.2120000  29.0580000  33.0220000
  27.8090000  29.1000000  33.7960000  30.6450000  30.1850000  20.8720000
  31.4150000  30.2060000  21.4390000  30.9640000  29.8180000  20.0480000
  30.7840000  30.1410000  20.8390000  18.8930000  23.5630000  32.4100000
  19.1700000  24.1320000  33.1280000  18.2910000  22.9400000  32.8170000
  18.8520000  23.5560000  32.5540000  19.7660000  29.9000000  35.0030000
  18.8450000  29.6800000  34.8630000  19.8460000  30.0070000  35.9500000
  19.6580000  29.8850000  35.1060000  34.7060000  21.8520000  21.7070000
  34.8380000  21.7080000  22.6440000  33.8380000  22.2510000  21.6470000
  34.6120000  21.8840000  21.8200000  23.4680000  24.1690000  25.9800000
  23.0610000  24.1680000  25.1130000  22.9820000  24.8320000  26.4710000
  23.3540000  24.2540000  25.9320000  21.5870000  20.5650000  33.9980000
  21.7940000  21.4630000  34.2550000  21.2310000  20.1640000  34.7910000
  21.5680000  20.6280000  34.1320000  22.8950000  21.3560000  24.6980000
  22.1370000  21.3430000  25.2830000  23.4270000  20.6120000  24.9790000
  22.8660000  21.2590000  24.8090000  29.9350000  25.0540000  34.9970000
  30.5210000  25.3670000  35.6860000  29.2090000  25.6790000  34.9970000
  29.9170000  25.1740000  35.0850000  27.5550000  25.5550000  24.5290000
  26.7300000  25.5370000  24.0440000  27.3040000  25.3690000  25.4340000
  27.4170000  25.5290000  24.5830000  19.4560000  23.5670000  38.0510000
  19.2580000  23.6480000  37.1190000  18.6620000  23.8700000  38.4920000
  19.3290000  23.6160000  37.9880000  22.3800000  27.1770000  19.1990000
  21.7770000  27.9140000  19.1030000  23.0090000  27.4670000  19.8600000
  22.3830000  27.3080000  19.2710000  25.5300000  26.1300000  29.4740000
  26.4110000  26.4220000  29.7060000  25.6160000  25.7960000  28.5810000
  25.6540000  26.1250000  29.3890000  29.8270000  21.9490000  27.6580000
  28.8750000  21.8860000  27.7290000  30.1550000  21.2210000  28.1860000
  29.7470000  21.8480000  27.7350000  34.9560000  29.9570000  29.7800000
  35.3960000  30.4640000  30.4630000  34.2840000  29.4600000  30.2460000
  34.9270000  29.9580000  29.9270000  25.4760000  29.4780000  36.8440000
  25.3190000  28.5340000  36.8080000  25.3870000  29.7700000  35.9370000
  25.4440000  29.3940000  36.7230000  32.3060000  23.2740000  21.5220000
  32.4100000  23.6180000  22.4090000  32.1760000  24.0500000  20.9770000
  32.3030000  23.4170000  21.5660000  34.9480000  24.1220000  28.8490000
  35.8600000  24.1330000  29.1420000  34.9480000  23.5370000  28.0910000
  35.0650000  24.0480000  28.7900000  32.7930000  28.4590000  30.7000000
  31.9180000  28.2020000  30.4100000  33.1450000  27.6760000  31.1240000
  32.7260000  28.3260000  30.7170000  24.5350000  20.4480000  19.5090000
  24.8770000  20.4570000  20.4030000  24.0500000  21.2700000  19.4310000
  24.5170000  20.5550000  19.6130000  19.7040000  20.3640000  29.4130000
  20.5380000  20.8180000  29.2890000  19.1160000  20.7630000  28.7730000
  19.7360000  20.4730000  29.3160000  20.8030000  19.4970000  36.4250000
  19.9700000  19.0700000  36.6260000  20.7700000  20.3240000  36.9050000
  20.6920000  19.5480000  36.5120000  27.1380000  24.9590000  27.1630000
  27.2240000  24.1750000  27.7060000  27.5780000  25.6460000  27.6630000
  27.2050000  24.9470000  27.2960000  34.2340000  19.0980000  21.3770000
  34.3620000  20.0130000  21.1250000  33.2850000  19.0030000  21.4620000
  34.1290000  19.2030000  21.3560000  29.3710000  24.3000000  20.6390000
  28.7450000  23.5760000  20.6630000  29.5890000  24.4590000  21.5570000
  29.3190000  24.2280000  20.7590000  26.1090000  25.9480000  32.7600000
  25.2640000  25.6280000  33.0760000  26.5820000  25.1570000  32.5000000
  26.0610000  25.8060000  32.7670000  23.0360000  31.1340000  37.0930000
  23.8470000  30.6460000  36.9510000  22.7670000  31.4110000  36.2170000
  23.1050000  31.1070000  36.9620000  25.2980000  30.1740000  34.1210000
  26.1780000  29.8010000  34.0690000  24.7600000  29.5930000  33.5840000
  25.3420000  30.0520000  34.0460000  33.6680000  22.9820000  26.2280000
  34.3640000  22.5960000  25.6950000  33.0580000  22.2600000  26.3830000
  33.6780000  22.8400000  26.1790000  31.7420000  28.4310000  33.7700000
  31.1850000  28.0370000  33.0980000  31.1660000  29.0410000  34.2300000
  31.5970000  28.4590000  33.7430000  35.6560000  27.6920000  36.9640000
  34.8330000  28.0320000  36.6150000  35.5120000  27.6360000  37.9090000
  35.5330000  27.7280000  37.0410000  29.5690000  24.4180000  23.3030000
  28.7460000  24.7010000  23.6990000  30.2470000  24.8040000  23.8580000
  29.5510000  24.5030000  23.4250000  22.5810000  28.0090000  31.3960000
  22.2040000  27.8820000  32.2660000  22.0180000  27.4980000  30.8140000
  22.4610000  27.9280000  31.4330000  31.5880000  29.5190000  26.8510000
  32.1330000  30.0200000  27.4580000  30.8940000  30.1260000  26.5940000
  31.5690000  29.6600000  26.8960000  19.5710000  31.0850000  27.6720000
  19.9650000  31.0150000  26.8020000  20.1830000  30.6300000  28.2490000
  19.7000000  31.0180000  27.6340000  29.0420000  27.6290000  23.5230000
  28.3700000  26.9480000  23.5530000  29.1210000  27.8460000  22.5940000
  28.9660000  27.5700000  23.4080000  22.7290000  22.4820000  37.4860000
  22.5760000  22.7620000  36.5840000  22.4920000  23.2420000  38.0170000
  22.6790000  22.6150000  37.4390000  24.6620000  26.6030000  36.5920000
  24.5470000  26.3190000  35.6850000  23.7710000  26.7060000  36.9250000
  24.5330000  26.5800000  36.5180000  23.7070000  24.9300000  31.4380000
  23.1170000  24.1910000  31.2860000  24.3190000  24.9020000  30.7030000
  23.7100000  24.8320000  31.3240000  25.0920000  31.1220000  29.4700000
  25.0520000  30.1670000  29.4330000  24.6370000  31.3500000  30.2800000
  25.0290000  31.0290000  29.5690000  33.0570000  27.7750000  36.1520000
  32.3660000  27.1350000  36.3200000  32.8490000  28.1310000  35.2890000
  32.9420000  27.7380000  36.0630000  18.6750000  26.8770000  23.2890000
  19.3400000  27.4770000  23.6270000  17.8430000  27.3110000  23.4780000
  18.6540000  27.0090000  23.3570000  26.4220000  30.0580000  20.5780000
  26.0390000  29.7490000  19.7570000  26.6610000  30.9690000  20.4030000
  26.4040000  30.1350000  20.4510000  20.6780000  21.5130000  26.2560000
  20.4400000  20.6940000  25.8220000  19.9170000  22.0810000  26.1300000
  20.5500000  21.4810000  26.1840000  25.2490000  20.3280000  22.2600000
  25.4940000  19.4530000  22.5610000  25.0340000  20.8050000  23.0610000
  25.2530000  20.2770000  22.4010000  30.4810000  22.0770000  24.7980000
  30.1870000  22.7920000  24.2340000  30.2100000  22.3380000  25.6780000
  30.4090000  22.2020000  24.8380000  22.0870000  24.5930000  20.2940000
  21.1620000  24.3500000  20.3320000  22.0830000  25.5130000  20.0290000
  21.9690000  24.6800000  20.2650000  24.0560000  28.9460000  23.5830000
  24.8790000  29.4320000  23.5450000  24.1070000  28.4510000  24.4000000
  24.1680000  28.9450000  23.6820000  26.3510000  30.5830000  23.5850000
  25.8280000  31.2860000  23.9710000  26.3630000  30.7790000  22.6490000
  26.2860000  30.6980000  23.5150000  33.3940000  25.4500000  19.7490000
  33.8720000  25.0970000  19.0000000  33.8960000  26.2220000  20.0120000
  33.5190000  25.5040000  19.6870000  22.2880000  30.8860000  34.5790000
  22.2500000  31.2030000  33.6780000  21.4160000  30.5270000  34.7440000
  22.1710000  30.8800000  34.4860000  35.2460000  16.5300000  29.1480000
  35.3920000  16.9350000  30.0030000  34.3010000  16.5980000  29.0090000
  35.1440000  16.5900000  29.2400000  25.2220000  28.5830000  31.6330000
  25.5470000  27.7800000  32.0400000  24.3530000  28.3510000  31.3070000
  25.1520000  28.4510000  31.6430000  20.8380000  29.5170000  37.6020000
  21.6410000  30.0270000  37.4920000  20.3880000  29.9350000  38.3370000
  20.8830000  29.6360000  37.6820000  31.3340000  26.6650000  26.8620000
  31.8320000  26.4580000  26.0710000  31.5180000  27.5900000  27.0260000
  31.4210000  26.7570000  26.7820000  25.9590000  25.4110000  20.6030000
  25.4780000  24.5940000  20.4720000  26.3930000  25.5700000  19.7650000
  25.9530000  25.3270000  20.4790000  19.9230000  30.4480000  21.0610000
  20.6900000  30.1250000  21.5360000  19.1810000  30.2090000  21.6160000
  19.9260000  30.3760000  21.1930000  19.2610000  24.2040000  29.7570000
  20.0590000  23.8540000  29.3620000  19.2410000  23.8240000  30.6350000
  19.3600000  24.1100000  29.8190000  28.6550000  27.2610000  27.4850000
  28.2480000  28.0210000  27.0690000  29.5170000  27.1960000  27.0750000
  28.7130000  27.3500000  27.3800000  33.1920000  28.5000000  24.9670000
  33.8660000  28.9120000  25.5070000  32.3820000  28.9460000  25.2130000
  33.1750000  28.6100000  25.0670000  21.3460000  28.9910000  28.4700000
  22.3030000  28.9750000  28.4510000  21.1010000  28.1770000  28.9100000
  21.4370000  28.8850000  28.5240000  31.6490000  23.0010000  31.0090000
  31.1950000  23.4430000  30.2910000  31.1070000  23.1760000  31.7780000
  31.5220000  23.0800000  31.0150000  30.1880000  24.4770000  28.8190000
  30.8140000  24.9270000  28.2520000  30.0460000  23.6300000  28.3950000
  30.2500000  24.4260000  28.6920000  30.2120000  21.2220000  21.5750000
  29.4530000  21.4700000  21.0470000  30.7670000  22.0020000  21.5760000
  30.1860000  21.3540000  21.5080000  22.7470000  24.5150000  23.2920000
  22.6570000  24.2440000  22.3790000  21.8490000  24.6720000  23.5850000
  22.6200000  24.5010000  23.2130000  32.3340000  20.4060000  26.0880000
  31.6720000  20.8120000  25.5280000  33.0290000  20.1430000  25.4850000
  32.3380000  20.4250000  25.9390000  33.9470000  25.6380000  31.4670000
  33.6820000  24.9860000  32.1170000  34.1660000  25.1250000  30.6890000
  33.9410000  25.4890000  31.4510000  24.6930000  27.4310000  25.6920000
  24.8810000  26.6790000  25.1300000  25.5490000  27.8220000  25.8620000
  24.8260000  27.3850000  25.6420000  26.3490000  22.2910000  34.9320000
  27.2710000  22.3670000  35.1760000  25.8970000  22.9080000  35.5070000
  26.4090000  22.3790000  35.0360000  23.3400000  19.3010000  27.8510000
  23.5110000  20.2220000  28.0500000  23.9060000  18.8170000  28.4520000
  23.4340000  19.3570000  27.9530000  24.1940000  28.4280000  28.2440000
  24.4510000  28.0100000  27.4220000  24.2780000  27.7360000  28.9000000
  24.2380000  28.2860000  28.2230000  35.0000000  19.1670000  37.6670000
  34.4590000  18.6520000  38.2660000  34.5360000  20.0000000  37.5800000
  34.8720000  19.2080000  37.7330000  28.5650000  28.4050000  20.9030000
  29.2950000  29.0250000  20.8920000  27.7830000  28.9560000  20.8720000
  28.5580000  28.5550000  20.8970000  28.1970000  25.7860000  30.0190000
  27.7480000  25.0320000  30.4010000  28.9190000  25.4060000  29.5190000
  28.2320000  25.6410000  30.0050000  29.7320000  29.9100000  31.7310000
  29.4560000  30.7340000  32.1330000  30.6830000  29.8970000  31.8400000
  29.8190000  30.0140000  31.7960000  25.2200000  22.5230000  24.0020000
  25.0720000  23.4660000  23.9240000  24.4280000  22.1910000  24.4260000
  25.1000000  22.6010000  24.0460000  28.8710000  22.8670000  36.4210000
  28.4050000  23.4650000  37.0050000  29.4660000  23.4310000  35.9260000
  28.8870000  23.0150000  36.4320000  24.4760000  23.0120000  20.5970000
  23.5590000  22.7970000  20.7630000  24.9510000  22.6240000  21.3320000
  24.4190000  22.9350000  20.7120000  21.1180000  27.7580000  33.8680000
  20.4390000  28.3970000  34.0880000  20.7090000  26.9090000  34.0320000
  20.9780000  27.7310000  33.9170000  19.2660000  20.6670000  32.4500000
  20.1280000  20.6280000  32.8640000  19.4520000  20.8170000  31.5230000
  19.4000000  20.6810000  32.3840000  30.1830000  28.2000000  29.8170000
  29.9150000  28.8430000  30.4740000  29.3840000  28.0180000  29.3210000
  30.0460000  28.2590000  29.8370000  18.7250000  25.8380000  36.4370000
  18.1250000  26.5710000  36.5780000  19.2720000  25.8210000  37.2230000
  18.7180000  25.9300000  36.5570000  20.0810000  24.7390000  24.4800000
  20.4810000  25.3240000  25.1240000  19.6170000  25.3240000  23.8810000
  20.0730000  24.8890000  24.4860000  30.1600000  26.5340000  32.3800000
  29.9970000  26.8430000  31.4880000  29.2990000  26.2700000  32.7020000
  30.0290000  26.5400000  32.3070000  30.3820000  20.7550000  36.5170000
  30.3790000  20.4650000  35.6050000  29.7100000  21.4360000  36.5540000
  30.2950000  20.8050000  36.4050000  22.0410000  19.4180000  20.5250000
  22.0420000  20.1600000  21.1290000  22.5450000  19.7220000  19.7710000
  22.1060000  19.5520000  20.5060000  30.0920000  30.1970000  34.9160000
  29.2740000  30.0410000  34.4440000  30.1400000  31.1490000  35.0050000
  29.9940000  30.2990000  34.8670000  34.4420000  24.8930000  36.1460000
  35.1550000  24.2610000  36.2420000  34.8820000  25.7300000  36.0000000
  34.5890000  24.9190000  36.1390000  20.4710000  26.6750000  29.6680000
  19.6920000  27.1810000  29.8990000  20.2090000  25.7620000  29.7910000
  20.3380000  26.6230000  29.7130000  23.5670000  30.8320000  26.7740000
  23.4800000  31.6120000  27.3230000  23.6390000  30.1080000  27.3970000
  23.5650000  30.8390000  26.9240000  19.1980000  21.9160000  21.9790000
  19.1410000  21.6620000  21.0580000  18.6500000  22.6980000  22.0470000
  19.1200000  21.9840000  21.8700000  23.6690000  25.9730000  33.9580000
  23.5780000  25.8530000  33.0130000  22.9450000  26.5510000  34.1960000
  23.5650000  26.0320000  33.8670000  24.7510000  19.4890000  25.4100000
  24.3460000  19.1580000  26.2120000  24.8580000  18.7150000  24.8580000
  24.7130000  19.3480000  25.4420000  25.2940000  25.5350000  23.2960000
  25.6670000  25.4700000  22.4170000  24.3890000  25.2390000  23.1950000
  25.2260000  25.4880000  23.1710000  27.4390000  22.4320000  25.6810000
  26.5870000  22.2940000  25.2690000  27.4890000  23.3790000  25.8170000
  27.3370000  22.5360000  25.6460000  22.3110000  23.1000000  34.8720000
  23.1020000  23.1330000  34.3350000  21.9510000  23.9860000  34.8240000
  22.3660000  23.2170000  34.7970000  28.4840000  26.1030000  18.9200000
  28.4650000  26.7530000  19.6220000  28.8390000  25.3150000  19.3320000
  28.5270000  26.0860000  19.0620000  33.4670000  21.3530000  36.3410000
  33.5280000  21.0060000  35.4510000  32.5260000  21.4010000  36.5160000
  33.3540000  21.3150000  36.2490000  28.1570000  20.6060000  23.7720000
  27.9320000  21.3910000  24.2710000  29.0560000  20.7580000  23.4800000
  28.2440000  20.7260000  23.7990000  33.5840000  20.3260000  28.6420000
  34.4550000  19.9330000  28.6990000  33.4850000  20.5570000  27.7190000
  33.6830000  20.3050000  28.5310000  30.4920000  20.5930000  33.7760000
  30.2320000  19.8170000  33.2790000  31.4480000  20.5980000  33.7280000
  30.5810000  20.4940000  33.7070000  33.6090000  24.1910000  23.8900000
  33.3880000  23.9410000  24.7880000  34.4250000  23.7250000  23.7070000
  33.6850000  24.0990000  23.9820000  27.4120000  22.7410000  29.0570000
  26.5610000  22.3100000  28.9700000  27.5110000  22.8880000  29.9980000
  27.3150000  22.7050000  29.1660000  26.0430000  19.7620000  36.2080000
  25.4900000  20.0730000  36.9240000  26.1040000  20.5080000  35.6110000
  25.9800000  19.8970000  36.2230000  33.3570000  31.5480000  35.7450000
  32.7170000  31.0150000  36.2170000  33.3190000  31.2250000  34.8440000
  33.2700000  31.4380000  35.6900000  21.3870000  22.8960000  28.6710000
  21.2930000  22.4290000  27.8410000  22.2100000  22.5730000  29.0360000
  21.4800000  22.7950000  28.6120000  23.5500000  22.1540000  29.9270000
  24.0020000  21.5750000  30.5410000  24.1130000  22.1690000  29.1540000
  23.6800000  22.0820000  29.9070000  20.1320000  25.2540000  34.1960000
  19.5660000  25.6150000  33.5140000  19.6360000  25.3700000  35.0070000
  19.9960000  25.3150000  34.2120000  33.4510000  30.4240000  33.3460000
  32.8410000  29.6880000  33.4020000  33.0190000  31.0480000  32.7630000
  33.3180000  30.4090000  33.2790000  22.5490000  31.0120000  31.7710000
  22.0880000  31.3560000  31.0060000  22.6300000  30.0740000  31.5990000
  22.5000000  30.9360000  31.6510000  20.7450000  28.6530000  23.9560000
  21.7010000  28.6850000  23.9830000  20.4740000  29.5700000  23.9940000
  20.8330000  28.7740000  23.9640000  25.5850000  24.1120000  36.8990000
  24.8200000  23.7150000  37.3170000  25.3310000  25.0230000  36.7510000
  25.4540000  24.1780000  36.9340000  22.1040000  21.9430000  21.9270000
  22.4120000  22.0080000  22.8310000  21.1860000  21.6850000  22.0060000
  22.0260000  21.9180000  22.0530000  31.4130000  26.2040000  24.3110000
  32.0330000  26.6480000  23.7320000  30.6030000  26.7080000  24.2260000
  31.3890000  26.3260000  24.2260000  27.1240000  28.6670000  25.6840000
  27.6380000  28.0670000  25.1440000  26.8500000  29.3570000  25.0800000
  27.1540000  28.6780000  25.5380000  33.1660000  21.8960000  33.2430000
  32.8790000  22.7220000  33.6350000  32.9430000  21.9800000  32.3160000
  33.1000000  22.0130000  33.1750000  31.5600000  30.0080000  37.0370000
  30.7490000  30.0460000  36.5300000  31.9240000  29.1450000  36.8420000
  31.5030000  29.9030000  36.9470000  24.9000000  22.0510000  27.5950000
  24.7220000  22.6410000  26.8630000  25.3850000  21.3240000  27.2050000
  24.9390000  22.0340000  27.4520000  18.5050000  28.6410000  26.1720000
  19.1020000  28.8970000  25.4680000  18.8080000  29.1360000  26.9340000
  18.6200000  28.7370000  26.1790000  34.8740000  29.7380000  26.9580000
  35.7270000  29.3970000  26.6880000  34.8960000  29.7090000  27.9140000
  34.9860000  29.6900000  27.0450000  27.8040000  26.6490000  34.8630000
  27.0500000  26.3190000  34.3740000  27.6030000  26.4510000  35.7770000
  27.6820000  26.5810000  34.9170000  31.3540000  25.9720000  36.9320000
  30.5700000  25.9330000  37.4800000  31.9910000  25.4210000  37.3860000
  31.3350000  25.8970000  37.0600000  33.0200000  30.4090000  22.1730000
  33.4160000  30.7500000  22.9750000  33.5110000  30.8280000  21.4660000
  33.1330000  30.5060000  22.1850000  32.7490000  24.4950000  34.1350000
  33.4420000  24.6890000  34.7670000  32.1130000  25.2010000  34.2530000
  32.7560000  24.6100000  34.2310000  25.3260000  21.4360000  13.5940000
  25.5540000  21.4080000  14.5230000  24.6970000  20.7240000  13.4810000
  25.2750000  21.3410000  13.6990000  23.2420000  19.7220000  13.1000000
  22.6820000  20.1700000  13.7340000  23.0960000  18.7910000  13.2670000
  23.1520000  19.6600000  13.2020000  24.0610000  27.9630000   2.3480000
  23.9070000  28.4200000   3.1750000  24.7730000  27.3530000   2.5400000
  24.1320000  27.9430000   2.4780000  27.4560000  23.1720000  12.9530000
  26.8530000  22.5310000  13.3280000  28.2450000  23.1030000  13.4910000
  27.4800000  23.0820000  13.0700000  27.9940000  19.6090000  19.2310000
  28.8860000  19.3800000  18.9670000  27.4720000  19.4880000  18.4380000
  28.0420000  19.5650000  19.0960000  29.8790000  22.9980000  14.2210000
  30.0570000  22.1160000  14.5470000  30.1980000  23.5780000  14.9130000
  29.9430000  22.9590000  14.3520000  27.5340000  22.0450000   1.7090000
  27.2680000  21.5820000   2.5040000  27.5500000  21.3680000   1.0330000
  27.5020000  21.8990000   1.7250000  27.7690000  29.2330000  14.9930000
  27.6410000  28.3680000  15.3820000  28.2120000  29.0580000  14.1620000
  27.8090000  29.1000000  14.9360000  30.6450000  30.1850000   2.0120000
  31.4150000  30.2060000   2.5790000  30.9640000  29.8180000   1.1880000
  30.7840000  30.1410000   1.9790000  18.8930000  23.5630000  13.5500000
  19.1700000  24.1320000  14.2680000  18.2910000  22.9400000  13.9570000
  18.8520000  23.5560000  13.6940000  19.7660000  29.9000000  16.1430000
  18.8450000  29.6800000  16.0030000  19.8460000  30.0070000  17.0900000
  19.6580000  29.8850000  16.2460000  34.7060000  21.8520000   2.8470000
  34.8380000  21.7080000   3.7840000  33.8380000  22.2510000   2.7870000
  34.6120000  21.8840000   2.9600000  23.4680000  24.1690000   7.1200000
  23.0610000  24.1680000   6.2530000  22.9820000  24.8320000   7.6110000
  23.3540000  24.2540000   7.0720000  21.5870000  20.5650000  15.1380000
  21.7940000  21.4630000  15.3950000  21.2310000  20.1640000  15.9310000
  21.5680000  20.6280000  15.2720000  22.8950000  21.3560000   5.8380000
  22.1370000  21.3430000   6.4230000  23.4270000  20.6120000   6.1190000
  22.8660000  21.2590000   5.9490000  29.9350000  25.0540000  16.1370000
  30.5210000  25.3670000  16.8260000  29.2090000  25.6790000  16.1370000
  29.9170000  25.1740000  16.2250000  27.5550000  25.5550000   5.6690000
  26.7300000  25.5370000   5.1840000  27.3040000  25.3690000   6.5740000
  27.4170000  25.5290000   5.7230000  19.4560000  23.5670000  19.1910000
  19.2580000  23.6480000  18.2600000  18.6620000  23.8700000  19.6320000
  19.3290000  23.6160000  19.1280000  22.3800000  27.1770000   0.3390000
  21.7770000  27.9140000   0.2430000  23.0090000  27.4670000   1.0000000
  22.3830000  27.3080000   0.4110000  25.5300000  26.1300000  10.6140000
  26.4110000  26.4220000  10.8460000  25.6160000  25.7960000   9.7210000
  25.6540000  26.1250000  10.5290000  29.8270000  21.9490000   8.7980000
  28.8750000  21.8860000   8.8690000  30.1550000  21.2210000   9.3260000
  29.7470000  21.8480000   8.8750000  34.9560000  29.9570000  10.9200000
  35.3960000  30.4640000  11.6030000  34.2840000  29.4600000  11.3860000
  34.9270000  29.9580000  11.0670000  25.4760000  29.4780000  17.9840000
  25.3190000  28.5340000  17.9480000  25.3870000  29.7700000  17.0770000
  25.4440000  29.3940000  17.8630000  32.3060000  23.2740000   2.6620000
  32.4100000  23.6180000   3.5490000  32.1760000  24.0500000   2.1170000
  32.3030000  23.4170000   2.7060000  34.9480000  24.1220000   9.9890000
  35.8600000  24.1330000  10.2820000  34.9480000  23.5370000   9.2310000
  35.0650000  24.0480000   9.9300000  32.7930000  28.4590000  11.8400000
  31.9180000  28.2020000  11.5500000  33.1450000  27.6760000  12.2640000
  32.7260000  28.3260000  11.8570000  24.5350000  20.4480000   0.6490000
  24.8770000  20.4570000   1.5430000  24.0500000  21.2700000   0.5710000
  24.5170000  20.5550000   0.7530000  19.7040000  20.3640000  10.5530000
  20.5380000  20.8180000  10.4290000  19.1160000  20.7630000   9.9130000
  19.7360000  20.4730000  10.4560000  20.8030000  19.4970000  17.5650000
  19.9700000  19.0700000  17.7660000  20.7700000  20.3240000  18.0450000
  20.6920000  19.5480000  17.6520000  27.1380000  24.9590000   8.3030000
  27.2240000  24.1750000   8.8460000  27.5780000  25.6460000   8.8030000
  27.2050000  24.9470000   8.4360000  34.2340000  19.0980000   2.5170000
  34.3620000  20.0130000   2.2650000  33.2850000  19.0030000   2.6020000
  34.1290000  19.2030000   2.4960000  29.3710000  24.3000000   1.7790000
  28.7450000  23.5760000   1.8030000  29.5890000  24.4590000   2.6970000
  29.3190000  24.2280000   1.8990000  26.1090000  25.9480000  13.8990000
  25.2640000  25.6280000  14.2160000  26.5820000  25.1570000  13.6400000
  26.0610000  25.8060000  13.9070000  23.0360000  31.1340000  18.2330000
  23.8470000  30.6460000  18.0910000  22.7670000  31.4110000  17.3570000
  23.1050000  31.1070000  18.1020000  25.2980000  30.1740000  15.2610000
  26.1780000  29.8010000  15.2090000  24.7600000  29.5930000  14.7240000
  25.3420000  30.0520000  15.1860000  33.6680000  22.9820000   7.3680000
  34.3640000  22.5960000   6.8350000  33.0580000  22.2600000   7.5230000
  33.6780000  22.8400000   7.3190000  31.7420000  28.4310000  14.9100000
  31.1850000  28.0370000  14.2380000  31.1660000  29.0410000  15.3700000
  31.5970000  28.4590000  14.8830000  35.6560000  27.6920000  18.1040000
  34.8330000  28.0320000  17.7550000  35.5120000  27.6360000  19.0490000
  35.5330000  27.7280000  18.1800000  29.5690000  24.4180000   4.4430000
  28.7460000  24.7010000   4.8390000  30.2470000  24.8040000   4.9980000
  29.5510000  24.5030000   4.5650000  22.5810000  28.0090000  12.5360000
  22.2040000  27.8820000  13.4060000  22.0180000  27.4980000  11.9540000
  22.4610000  27.9280000  12.5730000  31.5880000  29.5190000   7.9910000
  32.1330000  30.0200000   8.5980000  30.8940000  30.1260000   7.7340000
  31.5690000  29.6600000   8.0360000  19.5710000  31.0850000   8.8120000
  19.9650000  31.0150000   7.9420000  20.1830000  30.6300000   9.3890000
  19.7000000  31.0180000   8.7740000  34.2920000  26.7650000   4.1840000
  34.2490000  27.3840000   4.9140000  33.9260000  25.9540000   4.5360000
  34.2400000  26.7410000   4.3230000  29.0420000  27.6290000   4.6630000
  28.3700000  26.9480000   4.6930000  29.1210000  27.8460000   3.7340000
  28.9660000  27.5700000   4.5480000  22.7290000  22.4820000  18.6260000
  22.5760000  22.7620000  17.7240000  22.4920000  23.2420000  19.1570000
  22.6790000  22.6150000  18.5790000  24.6620000  26.6030000  17.7320000
  24.5470000  26.3190000  16.8250000  23.7710000  26.7060000  18.0650000
  24.5330000  26.5800000  17.6590000  23.7070000  24.9300000  12.5780000
  23.1170000  24.1910000  12.4260000  24.3190000  24.9020000  11.8430000
  23.7100000  24.8320000  12.4640000  25.0920000  31.1220000  10.6100000
  25.0520000  30.1670000  10.5730000  24.6370000  31.3500000  11.4200000
  25.0290000  31.0290000  10.7090000  33.0570000  27.7750000  17.2920000
  32.3660000  27.1350000  17.4600000  32.8490000  28.1310000  16.4290000
  32.9420000  27.7380000  17.2030000  18.6750000  26.8770000   4.4290000
  19.3400000  27.4770000   4.7670000  17.8430000  27.3110000   4.6180000
  18.6540000  27.0090000   4.4970000  26.4220000  30.0580000   1.7180000
  26.0390000  29.7490000   0.8970000  26.6610000  30.9690000   1.5430000
  26.4040000  30.1350000   1.5910000  20.6780000  21.5130000   7.3960000
  20.4400000  20.6940000   6.9620000  19.9170000  22.0810000   7.2690000
  20.5500000  21.4810000   7.3240000  25.2490000  20.3280000   3.4000000
  25.4940000  19.4530000   3.7010000  25.0340000  20.8050000   4.2010000
  25.2530000  20.2770000   3.5410000  30.4810000  22.0770000   5.9380000
  30.1870000  22.7920000   5.3740000  30.2100000  22.3380000   6.8180000
  30.4090000  22.2020000   5.9780000  22.0870000  24.5930000   1.4340000
  21.1620000  24.3500000   1.4720000  22.0830000  25.5130000   1.1690000
  21.9690000  24.6800000   1.4050000  24.0560000  28.9460000   4.7230000
  24.8790000  29.4320000   4.6850000  24.1070000  28.4510000   5.5400000
  24.1680000  28.9450000   4.8220000  26.3510000  30.5830000   4.7250000
  25.8280000  31.2860000   5.1110000  26.3630000  30.7790000   3.7890000
  26.2860000  30.6980000   4.6550000  33.3940000  25.4500000   0.8890000
  33.8720000  25.0970000   0.1400000  33.8960000  26.2220000   1.1520000
  33.5190000  25.5040000   0.8270000  22.2880000  30.8860000  15.7190000
  22.2500000  31.2030000  14.8170000  21.4160000  30.5270000  15.8840000
  22.1710000  30.8800000  15.6250000  35.2460000  16.5300000  10.2880000
  35.3920000  16.9350000  11.1430000  34.3010000  16.5980000  10.1490000
  35.1440000  16.5900000  10.3800000  25.2220000  28.5830000  12.7730000
  25.5470000  27.7800000  13.1800000  24.3530000  28.3510000  12.4470000
  25.1520000  28.4510000  12.7830000  20.8380000  29.5170000  18.7420000
  21.6410000  30.0270000  18.6320000  20.3880000  29.9350000  19.4760000
  20.8830000  29.6360000  18.8220000  31.3340000  26.6650000   8.0020000
  31.8320000  26.4580000   7.2110000  31.5180000  27.5900000   8.1660000
  31.4210000  26.7570000   7.9220000  25.9590000  25.4110000   1.7430000
  25.4780000  24.5940000   1.6120000  26.3930000  25.5700000   0.9050000
  25.9530000  25.3270000   1.6190000  19.9230000  30.4480000   2.2010000
  20.6900000  30.1250000   2.6760000  19.1810000  30.2090000   2.7560000
  19.9260000  30.3760000   2.3330000  19.2610000  24.2040000  10.8970000
  20.0590000  23.8540000  10.5020000  19.2410000  23.8240000  11.7750000
  19.3600000  24.1100000  10.9590000  28.6550000  27.2610000   8.6250000
  28.2480000  28.0210000   8.2090000  29.5170000  27.1960000   8.2150000
  28.7130000  27.3500000   8.5190000  33.1920000  28.5000000   6.1070000
  33.8660000  28.9120000   6.6470000  32.3820000  28.9460000   6.3530000
  33.1750000  28.6100000   6.2070000  21.3460000  28.9910000   9.6100000
  22.3030000  28.9750000   9.5910000  21.1010000  28.1770000  10.0500000
  21.4370000  28.8850000   9.6640000  31.6490000  23.0010000  12.1490000
  31.1950000  23.4430000  11.4310000  31.1070000  23.1760000  12.9180000
  31.5220000  23.0800000  12.1550000  30.1880000  24.4770000   9.9590000
  30.8140000  24.9270000   9.3920000  30.0460000  23.6300000   9.5350000
  30.2500000  24.4260000   9.8320000  30.2120000  21.2220000   2.7150000
  29.4530000  21.4700000   2.1870000  30.7670000  22.0020000   2.7160000
  30.1860000  21.3540000   2.6480000  22.7470000  24.5150000   4.4320000
  22.6570000  24.2440000   3.5190000  21.8490000  24.6720000   4.7250000
  22.6200000  24.5010000   4.3530000  32.3340000  20.4060000   7.2280000
  31.6720000  20.8120000   6.6680000  33.0290000  20.1430000   6.6250000
  32.3380000  20.4250000   7.0790000  33.9470000  25.6380000  12.6070000
  33.6820000  24.9860000  13.2570000  34.1660000  25.1250000  11.8290000
  33.9410000  25.4890000  12.5910000  24.6930000  27.4310000   6.8320000
  24.8810000  26.6790000   6.2700000  25.5490000  27.8220000   7.0020000
  24.8260000  27.3850000   6.7820000  26.3490000  22.2910000  16.0720000
  27.2710000  22.3670000  16.3160000  25.8970000  22.9080000  16.6470000
  26.4090000  22.3790000  16.1760000  23.3400000  19.3010000   8.9910000
  23.5110000  20.2220000   9.1900000  23.9060000  18.8170000   9.5920000
  23.4340000  19.3570000   9.0930000  24.1940000  28.4280000   9.3840000
  24.4510000  28.0100000   8.5620000  24.2780000  27.7360000  10.0400000
  24.2380000  28.2860000   9.3630000  35.0000000  19.1670000  18.8070000
  34.4590000  18.6520000  19.4050000  34.5360000  20.0000000  18.7200000
  34.8720000  19.2080000  18.8730000  28.5650000  28.4050000   2.0430000
  29.2950000  29.0250000   2.0320000  27.7830000  28.9560000   2.0120000
  28.5580000  28.5550000   2.0370000  28.1970000  25.7860000  11.1590000
  27.7480000  25.0320000  11.5410000  28.9190000  25.4060000  10.6590000
  28.2320000  25.6410000  11.1440000  29.7320000  29.9100000  12.8710000
  29.4560000  30.7340000  13.2730000  30.6830000  29.8970000  12.9800000
  29.8190000  30.0140000  12.9360000  25.2200000  22.5230000   5.1420000
  25.0720000  23.4660000   5.0640000  24.4280000  22.1910000   5.5660000
  25.1000000  22.6010000   5.1860000  28.8710000  22.8670000  17.5610000
  28.4050000  23.4650000  18.1450000  29.4660000  23.4310000  17.0660000
  28.8870000  23.0150000  17.5720000  24.4760000  23.0120000   1.7370000
  23.5590000  22.7970000   1.9030000  24.9510000  22.6240000   2.4720000
  24.4190000  22.9350000   1.8520000  21.1180000  27.7580000  15.0080000
  20.4390000  28.3970000  15.2280000  20.7090000  26.9090000  15.1710000
  20.9780000  27.7310000  15.0570000  19.2660000  20.6670000  13.5900000
  20.1280000  20.6280000  14.0040000  19.4520000  20.8170000  12.6630000
  19.4000000  20.6810000  13.5240000  30.1830000  28.2000000  10.9570000
  29.9150000  28.8430000  11.6140000  29.3840000  28.0180000  10.4610000
  30.0460000  28.2590000  10.9770000  18.7250000  25.8380000  17.5770000
  18.1250000  26.5710000  17.7180000  19.2720000  25.8210000  18.3630000
  18.7180000  25.9300000  17.6960000  20.0810000  24.7390000   5.6200000
  20.4810000  25.3240000   6.2640000  19.6170000  25.3240000   5.0210000
  20.0730000  24.8890000   5.6260000  30.1600000  26.5340000  13.5190000
  29.9970000  26.8430000  12.6280000  29.2990000  26.2700000  13.8420000
  30.0290000  26.5400000  13.4470000  30.3820000  20.7550000  17.6570000
  30.3790000  20.4650000  16.7450000  29.7100000  21.4360000  17.6940000
  30.2950000  20.8050000  17.5450000  22.0410000  19.4180000   1.6650000
  22.0420000  20.1600000   2.2690000  22.5450000  19.7220000   0.9110000
  22.1060000  19.5520000   1.6460000  34.4420000  24.8930000  17.2860000
  35.1550000  24.2610000  17.3810000  34.8820000  25.7300000  17.1400000
  34.5890000  24.9190000  17.2790000  20.4710000  26.6750000  10.8080000
  19.6920000  27.1810000  11.0390000  20.2090000  25.7620000  10.9310000
  20.3380000  26.6230000  10.8530000  23.5670000  30.8320000   7.9140000
  23.4800000  31.6120000   8.4630000  23.6390000  30.1080000   8.5370000
  23.5650000  30.8390000   8.0640000  19.1980000  21.9160000   3.1190000
  19.1410000  21.6620000   2.1980000  18.6500000  22.6980000   3.1870000
  19.1200000  21.9840000   3.0100000  23.6690000  25.9730000  15.0980000
  23.5780000  25.8530000  14.1530000  22.9450000  26.5510000  15.3360000
  23.5650000  26.0320000  15.0070000  24.7510000  19.4890000   6.5500000
  24.3460000  19.1580000   7.3520000  24.8580000  18.7150000   5.9980000
  24.7130000  19.3480000   6.5820000  25.2940000  25.5350000   4.4360000
  25.6670000  25.4700000   3.5570000  24.3890000  25.2390000   4.3350000
  25.2260000  25.4880000   4.3110000  27.4390000  22.4320000   6.8210000
  26.5870000  22.2940000   6.4090000  27.4890000  23.3790000   6.9570000
  27.3370000  22.5360000   6.7860000  22.3110000  23.1000000  16.0120000
  23.1020000  23.1330000  15.4750000  21.9510000  23.9860000  15.9640000
  22.3660000  23.2170000  15.9370000  28.4840000  26.1030000   0.0600000
  28.4650000  26.7530000   0.7620000  28.8390000  25.3150000   0.4720000
  28.5270000  26.0860000   0.2020000  33.4670000  21.3530000  17.4810000
  33.5280000  21.0060000  16.5910000  32.5260000  21.4010000  17.6550000
  33.3540000  21.3150000  17.3890000  28.1570000  20.6060000   4.9120000
  27.9320000  21.3910000   5.4110000  29.0560000  20.7580000   4.6200000
  28.2440000  20.7260000   4.9390000  33.5840000  20.3260000   9.7820000
  34.4550000  19.9330000   9.8390000  33.4850000  20.5570000   8.8590000
  33.6830000  20.3050000   9.6710000  30.4920000  20.5930000  14.9160000
  30.2320000  19.8170000  14.4190000  31.4480000  20.5980000  14.8680000
  30.5810000  20.4940000  14.8460000  33.6090000  24.1910000   5.0300000
  33.3880000  23.9410000   5.9280000  34.4250000  23.7250000   4.8470000
  33.6850000  24.0990000   5.1220000  27.4120000  22.7410000  10.1970000
  26.5610000  22.3100000  10.1100000  27.5110000  22.8880000  11.1380000
  27.3150000  22.7050000  10.3060000  26.0430000  19.7620000  17.3480000
  25.4900000  20.0730000  18.0640000  26.1040000  20.5080000  16.7510000
  25.9800000  19.8970000  17.3630000  33.3570000  31.5480000  16.8850000
  32.7170000  31.0150000  17.3570000  33.3190000  31.2250000  15.9840000
  33.2700000  31.4380000  16.8300000  21.3870000  22.8960000   9.8110000
  21.2930000  22.4290000   8.9810000  22.2100000  22.5730000  10.1760000
  21.4800000  22.7950000   9.7520000  23.5500000  22.1540000  11.0670000
  24.0020000  21.5750000  11.6810000  24.1130000  22.1690000  10.2940000
  23.6800000  22.0820000  11.0470000  20.1320000  25.2540000  15.3360000
  19.5660000  25.6150000  14.6540000  19.6360000  25.3700000  16.1460000
  19.9960000  25.3150000  15.3520000  33.4510000  30.4240000  14.4860000
  32.8410000  29.6880000  14.5420000  33.0190000  31.0480000  13.9030000
  33.3180000  30.4090000  14.4190000  22.5490000  31.0120000  12.9110000
  22.0880000  31.3560000  12.1460000  22.6300000  30.0740000  12.7390000
  22.5000000  30.9360000  12.7910000  20.7450000  28.6530000   5.0960000
  21.7010000  28.6850000   5.1230000  20.4740000  29.5700000   5.1340000
  20.8330000  28.7740000   5.1040000  25.5850000  24.1120000  18.0400000
  24.8200000  23.7150000  18.4570000  25.3310000  25.0230000  17.8910000
  25.4540000  24.1780000  18.0740000  22.1040000  21.9430000   3.0670000
  22.4120000  22.0080000   3.9710000  21.1860000  21.6850000   3.1460000
  22.0260000  21.9180000   3.1930000  31.4130000  26.2040000   5.4510000
  32.0330000  26.6480000   4.8720000  30.6030000  26.7080000   5.3660000
  31.3890000  26.3260000   5.3660000  27.1240000  28.6670000   6.8240000
  27.6380000  28.0670000   6.2840000  26.8500000  29.3570000   6.2200000
  27.1540000  28.6780000   6.6780000  33.1660000  21.8960000  14.3830000
  32.8790000  22.7220000  14.7740000  32.9430000  21.9800000  13.4560000
  33.1000000  22.0130000  14.3150000  31.5600000  30.0080000  18.1770000
  30.7490000  30.0460000  17.6700000  31.9240000  29.1450000  17.9820000
  31.5030000  29.9030000  18.0870000  24.9000000  22.0510000   8.7350000
  24.7220000  22.6410000   8.0030000  25.3850000  21.3240000   8.3450000
  24.9390000  22.0340000   8.5920000  18.5050000  28.6410000   7.3120000
  19.1020000  28.8970000   6.6080000  18.8080000  29.1360000   8.0740000
  18.6200000  28.7370000   7.3190000  34.8740000  29.7380000   8.0980000
  35.7270000  29.3970000   7.8280000  34.8960000  29.7090000   9.0540000
  34.9860000  29.6900000   8.1850000  27.8040000  26.6490000  16.0030000
  27.0500000  26.3190000  15.5140000  27.6030000  26.4510000  16.9170000
  27.6820000  26.5810000  16.0570000  31.3540000  25.9720000  18.0720000
  30.5700000  25.9330000  18.6200000  31.9910000  25.4210000  18.5260000
  31.3350000  25.8970000  18.2000000  33.0200000  30.4090000   3.3130000
  33.4160000  30.7500000   4.1150000  33.5110000  30.8280000   2.6060000
  33.1330000  30.5060000   3.3250000  32.7490000  24.4950000  15.2750000
  33.4420000  24.6890000  15.9070000  32.1130000  25.2010000  15.3930000
  32.7560000  24.6100000  15.3710000  25.3260000  21.4360000  -5.2660000
  25.5540000  21.4080000  -4.3370000  24.6970000  20.7240000  -5.3790000
  25.2750000  21.3410000  -5.1610000  23.2420000  19.7220000  -5.7600000
  22.6820000  20.1700000  -5.1260000  23.0960000  18.7910000  -5.5930000
  23.1520000  19.6600000  -5.6580000  24.0610000  27.9630000 -16.5120000
  23.9070000  28.4200000 -15.6850000  24.7730000  27.3530000 -16.3200000
  24.1320000  27.9430000 -16.3820000  27.4560000  23.1720000  -5.9070000
  26.8530000  22.5310000  -5.5320000  28.2450000  23.1030000  -5.3690000
  27.4800000  23.0820000  -5.7900000  27.9940000  19.6090000   0.3710000
  28.8860000  19.3800000   0.1070000  27.4720000  19.4880000  -0.4220000
  28.0420000  19.5650000   0.2360000  29.8790000  22.9980000  -4.6390000
  30.0570000  22.1160000  -4.3130000  30.1980000  23.5780000  -3.9470000
  29.9430000  22.9590000  -4.5080000  27.5340000  22.0450000 -17.1510000
  27.2680000  21.5820000 -16.3560000  27.5500000  21.3680000 -17.8270000
  27.5020000  21.8990000 -17.1350000  27.7690000  29.2330000  -3.8670000
  27.6410000  28.3680000  -3.4780000  28.2120000  29.0580000  -4.6980000
  27.8090000  29.1000000  -3.9240000  30.6450000  30.1850000 -16.8480000
  31.4150000  30.2060000 -16.2810000  30.9640000  29.8180000 -17.6720000
  30.7840000  30.1410000 -16.8810000  18.8930000  23.5630000  -5.3100000
  19.1700000  24.1320000  -4.5920000  18.2910000  22.9400000  -4.9030000
  18.8520000  23.5560000  -5.1660000  19.7660000  29.9000000  -2.7170000
  18.8450000  29.6800000  -2.8570000  19.8460000  30.0070000  -1.7700000
  19.6580000  29.8850000  -2.6140000  34.7060000  21.8520000 -16.0130000
  34.8380000  21.7080000 -15.0760000  33.8380000  22.2510000 -16.0730000
  34.6120000  21.8840000 -15.9000000  23.4680000  24.1690000 -11.7400000
  23.0610000  24.1680000 -12.6070000  22.9820000  24.8320000 -11.2490000
  23.3540000  24.2540000 -11.7880000  21.5870000  20.5650000  -3.7220000
  21.7940000  21.4630000  -3.4650000  21.2310000  20.1640000  -2.9290000
  21.5680000  20.6280000  -3.5880000  22.8950000  21.3560000 -13.0220000
  22.1370000  21.3430000 -12.4370000  23.4270000  20.6120000 -12.7410000
  22.8660000  21.2590000 -12.9110000  29.9350000  25.0540000  -2.7230000
  30.5210000  25.3670000  -2.0340000  29.2090000  25.6790000  -2.7230000
  29.9170000  25.1740000  -2.6350000  27.5550000  25.5550000 -13.1910000
  26.7300000  25.5370000 -13.6760000  27.3040000  25.3690000 -12.2860000
  27.4170000  25.5290000 -13.1370000  19.4560000  23.5670000   0.3310000
  19.2580000  23.6480000  -0.6010000  18.6620000  23.8700000   0.7720000
  19.3290000  23.6160000   0.2680000  22.3800000  27.1770000 -18.5210000
  21.7770000  27.9140000 -18.6170000  23.0090000  27.4670000 -17.8600000
  22.3830000  27.3080000 -18.4490000  25.5300000  26.1300000  -8.2460000
  26.4110000  26.4220000  -8.0140000  25.6160000  25.7960000  -9.1390000
  25.6540000  26.1250000  -8.3310000  29.8270000  21.9490000 -10.0620000
  28.8750000  21.8860000  -9.9910000  30.1550000  21.2210000  -9.5340000
  29.7470000  21.8480000  -9.9850000  34.9560000  29.9570000  -7.9400000
  35.3960000  30.4640000  -7.2570000  34.2840000  29.4600000  -7.4740000
  34.9270000  29.9580000  -7.7930000  25.4760000  29.4780000  -0.8760000
  25.3190000  28.5340000  -0.9120000  25.3870000  29.7700000  -1.7830000
  25.4440000  29.3940000  -0.9970000  32.3060000  23.2740000 -16.1980000
  32.4100000  23.6180000 -15.3110000  32.1760000  24.0500000 -16.7430000
  32.3030000  23.4170000 -16.1540000  34.9480000  24.1220000  -8.8710000
  35.8600000  24.1330000  -8.5780000  34.9480000  23.5370000  -9.6290000
  35.0650000  24.0480000  -8.9300000  32.7930000  28.4590000  -7.0200000
  31.9180000  28.2020000  -7.3100000  33.1450000  27.6760000  -6.5960000
  32.7260000  28.3260000  -7.0030000  24.5350000  20.4480000 -18.2110000
  24.8770000  20.4570000 -17.3170000  24.0500000  21.2700000 -18.2890000
  24.5170000  20.5550000 -18.1070000  19.7040000  20.3640000  -8.3070000
  20.5380000  20.8180000  -8.4310000  19.1160000  20.7630000  -8.9470000
  19.7360000  20.4730000  -8.4040000  20.8030000  19.4970000  -1.2950000
  19.9700000  19.0700000  -1.0940000  20.7700000  20.3240000  -0.8150000
  20.6920000  19.5480000  -1.2080000  27.1380000  24.9590000 -10.5570000
  27.2240000  24.1750000 -10.0140000  27.5780000  25.6460000 -10.0570000
  27.2050000  24.9470000 -10.4240000  34.2340000  19.0980000 -16.3430000
  34.3620000  20.0130000 -16.5950000  33.2850000  19.0030000 -16.2580000
  34.1290000  19.2030000 -16.3640000  29.3710000  24.3000000 -17.0810000
  28.7450000  23.5760000 -17.0570000  29.5890000  24.4590000 -16.1630000
  29.3190000  24.2280000 -16.9610000  26.1090000  25.9480000  -4.9610000
  25.2640000  25.6280000  -4.6440000  26.5820000  25.1570000  -5.2200000
  26.0610000  25.8060000  -4.9530000  23.0360000  31.1340000  -0.6270000
  23.8470000  30.6460000  -0.7690000  22.7670000  31.4110000  -1.5030000
  23.1050000  31.1070000  -0.7580000  25.2980000  30.1740000  -3.5990000
  26.1780000  29.8010000  -3.6510000  24.7600000  29.5930000  -4.1360000
  25.3420000  30.0520000  -3.6740000  33.6680000  22.9820000 -11.4920000
  34.3640000  22.5960000 -12.0250000  33.0580000  22.2600000 -11.3370000
  33.6780000  22.8400000 -11.5410000  31.7420000  28.4310000  -3.9500000
  31.1850000  28.0370000  -4.6220000  31.1660000  29.0410000  -3.4900000
  31.5970000  28.4590000  -3.9770000  35.6560000  27.6920000  -0.7560000
  34.8330000  28.0320000  -1.1050000  35.5120000  27.6360000   0.1890000
  35.5330000  27.7280000  -0.6800000  29.5690000  24.4180000 -14.4170000
  28.7460000  24.7010000 -14.0210000  30.2470000  24.8040000 -13.8620000
  29.5510000  24.5030000 -14.2950000  22.5810000  28.0090000  -6.3240000
  22.2040000  27.8820000  -5.4540000  22.0180000  27.4980000  -6.9060000
  22.4610000  27.9280000  -6.2870000  31.5880000  29.5190000 -10.8690000
  32.1330000  30.0200000 -10.2620000  30.8940000  30.1260000 -11.1260000
  31.5690000  29.6600000 -10.8240000  19.5710000  31.0850000 -10.0480000
  19.9650000  31.0150000 -10.9180000  20.1830000  30.6300000  -9.4710000
  19.7000000  31.0180000 -10.0860000  34.2920000  26.7650000 -14.6760000
  34.2490000  27.3840000 -13.9460000  33.9260000  25.9540000 -14.3240000
  34.2400000  26.7410000 -14.5370000  29.0420000  27.6290000 -14.1970000
  28.3700000  26.9480000 -14.1670000  29.1210000  27.8460000 -15.1260000
  28.9660000  27.5700000 -14.3120000  22.7290000  22.4820000  -0.2340000
  22.5760000  22.7620000  -1.1360000  22.4920000  23.2420000   0.2970000
  22.6790000  22.6150000  -0.2810000  24.6620000  26.6030000  -1.1280000
  24.5470000  26.3190000  -2.0350000  23.7710000  26.7060000  -0.7950000
  24.5330000  26.5800000  -1.2020000  23.7070000  24.9300000  -6.2820000
  23.1170000  24.1910000  -6.4340000  24.3190000  24.9020000  -7.0170000
  23.7100000  24.8320000  -6.3960000  25.0920000  31.1220000  -8.2500000
  25.0520000  30.1670000  -8.2870000  24.6370000  31.3500000  -7.4400000
  25.0290000  31.0290000  -8.1510000  33.0570000  27.7750000  -1.5680000
  32.3660000  27.1350000  -1.4000000  32.8490000  28.1310000  -2.4310000
  32.9420000  27.7380000  -1.6570000  18.6750000  26.8770000 -14.4310000
  19.3400000  27.4770000 -14.0930000  17.8430000  27.3110000 -14.2420000
  18.6540000  27.0090000 -14.3630000  26.4220000  30.0580000 -17.1420000
  26.0390000  29.7490000 -17.9630000  26.6610000  30.9690000 -17.3170000
  26.4040000  30.1350000 -17.2690000  20.6780000  21.5130000 -11.4640000
  20.4400000  20.6940000 -11.8980000  19.9170000  22.0810000 -11.5910000
  20.5500000  21.4810000 -11.5360000  25.2490000  20.3280000 -15.4600000
  25.4940000  19.4530000 -15.1590000  25.0340000  20.8050000 -14.6590000
  25.2530000  20.2770000 -15.3190000  30.4810000  22.0770000 -12.9220000
  30.1870000  22.7920000 -13.4860000  30.2100000  22.3380000 -12.0420000
  30.4090000  22.2020000 -12.8820000  22.0870000  24.5930000 -17.4260000
  21.1620000  24.3500000 -17.3880000  22.0830000  25.5130000 -17.6910000
  21.9690000  24.6800000 -17.4550000  24.0560000  28.9460000 -14.1370000
  24.8790000  29.4320000 -14.1750000  24.1070000  28.4510000 -13.3200000
  24.1680000  28.9450000 -14.0380000  26.3510000  30.5830000 -14.1350000
  25.8280000  31.2860000 -13.7490000  26.3630000  30.7790000 -15.0710000
  26.2860000  30.6980000 -14.2050000  33.3940000  25.4500000 -17.9710000
  33.8720000  25.0970000 -18.7200000  33.8960000  26.2220000 -17.7080000
  33.5190000  25.5040000 -18.0330000  22.2880000  30.8860000  -3.1410000
  22.2500000  31.2030000  -4.0430000  21.4160000  30.5270000  -2.9760000
  22.1710000  30.8800000  -3.2350000  35.2460000  16.5300000  -8.5720000
  35.3920000  16.9350000  -7.7170000  34.3010000  16.5980000  -8.7110000
  35.1440000  16.5900000  -8.4800000  25.2220000  28.5830000  -6.0870000
  25.5470000  27.7800000  -5.6800000  24.3530000  28.3510000  -6.4130000
  25.1520000  28.4510000  -6.0770000  20.8380000  29.5170000  -0.1180000
  21.6410000  30.0270000  -0.2280000  20.3880000  29.9350000   0.6160000
  20.8830000  29.6360000  -0.0380000  31.3340000  26.6650000 -10.8580000
  31.8320000  26.4580000 -11.6490000  31.5180000  27.5900000 -10.6940000
  31.4210000  26.7570000 -10.9380000  25.9590000  25.4110000 -17.1170000
  25.4780000  24.5940000 -17.2480000  26.3930000  25.5700000 -17.9550000
  25.9530000  25.3270000 -17.2410000  19.9230000  30.4480000 -16.6590000
  20.6900000  30.1250000 -16.1840000  19.1810000  30.2090000 -16.1040000
  19.9260000  30.3760000 -16.5270000  19.2610000  24.2040000  -7.9630000
  20.0590000  23.8540000  -8.3580000  19.2410000  23.8240000  -7.0850000
  19.3600000  24.1100000  -7.9010000  28.6550000  27.2610000 -10.2350000
  28.2480000  28.0210000 -10.6510000  29.5170000  27.1960000 -10.6450000
  28.7130000  27.3500000 -10.3410000  33.1920000  28.5000000 -12.7530000
  33.8660000  28.9120000 -12.2130000  32.3820000  28.9460000 -12.5070000
  33.1750000  28.6100000 -12.6530000  21.3460000  28.9910000  -9.2500000
  22.3030000  28.9750000  -9.2690000  21.1010000  28.1770000  -8.8100000
  21.4370000  28.8850000  -9.1960000  31.6490000  23.0010000  -6.7110000
  31.1950000  23.4430000  -7.4290000  31.1070000  23.1760000  -5.9420000
  31.5220000  23.0800000  -6.7050000  30.1880000  24.4770000  -8.9010000
  30.8140000  24.9270000  -9.4680000  30.0460000  23.6300000  -9.3250000
  30.2500000  24.4260000  -9.0280000  30.2120000  21.2220000 -16.1450000
  29.4530000  21.4700000 -16.6730000  30.7670000  22.0020000 -16.1440000
  30.1860000  21.3540000 -16.2120000  22.7470000  24.5150000 -14.4280000
  22.6570000  24.2440000 -15.3410000  21.8490000  24.6720000 -14.1350000
  22.6200000  24.5010000 -14.5070000  32.3340000  20.4060000 -11.6320000
  31.6720000  20.8120000 -12.1920000  33.0290000  20.1430000 -12.2350000
  32.3380000  20.4250000 -11.7810000  33.9470000  25.6380000  -6.2530000
  33.6820000  24.9860000  -5.6030000  34.1660000  25.1250000  -7.0310000
  33.9410000  25.4890000  -6.2690000  24.6930000  27.4310000 -12.0280000
  24.8810000  26.6790000 -12.5900000  25.5490000  27.8220000 -11.8580000
  24.8260000  27.3850000 -12.0780000  26.3490000  22.2910000  -2.7880000
  27.2710000  22.3670000  -2.5440000  25.8970000  22.9080000  -2.2130000
  26.4090000  22.3790000  -2.6840000  23.3400000  19.3010000  -9.8690000
  23.5110000  20.2220000  -9.6700000  23.9060000  18.8170000  -9.2680000
  23.4340000  19.3570000  -9.7670000  24.1940000  28.4280000  -9.4760000
  24.4510000  28.0100000 -10.2980000  24.2780000  27.7360000  -8.8200000
  24.2380000  28.2860000  -9.4970000  35.0000000  19.1670000  -0.0530000
  34.4590000  18.6520000   0.5450000  34.5360000  20.0000000  -0.1400000
  34.8720000  19.2080000   0.0130000  28.5650000  28.4050000 -16.8170000
  29.2950000  29.0250000 -16.8280000  27.7830000  28.9560000 -16.8480000
  28.5580000  28.5550000 -16.8230000  28.1970000  25.7860000  -7.7010000
  27.7480000  25.0320000  -7.3190000  28.9190000  25.4060000  -8.2010000
  28.2320000  25.6410000  -7.7160000  29.7320000  29.9100000  -5.9890000
  29.4560000  30.7340000  -5.5870000  30.6830000  29.8970000  -5.8800000
  29.8190000  30.0140000  -5.9240000  25.2200000  22.5230000 -13.7180000
  25.0720000  23.4660000 -13.7960000  24.4280000  22.1910000 -13.2940000
  25.1000000  22.6010000 -13.6740000  28.8710000  22.8670000  -1.2990000
  28.4050000  23.4650000  -0.7150000  29.4660000  23.4310000  -1.7940000
  28.8870000  23.0150000  -1.2880000  24.4760000  23.0120000 -17.1230000
  23.5590000  22.7970000 -16.9570000  24.9510000  22.6240000 -16.3880000
  24.4190000  22.9350000 -17.0080000  21.1180000  27.7580000  -3.8520000
  20.4390000  28.3970000  -3.6320000  20.7090000  26.9090000  -3.6890000
  20.9780000  27.7310000  -3.8030000  19.2660000  20.6670000  -5.2700000
  20.1280000  20.6280000  -4.8560000  19.4520000  20.8170000  -6.1970000
  19.4000000  20.6810000  -5.3360000  30.1830000  28.2000000  -7.9030000
  29.9150000  28.8430000  -7.2460000  29.3840000  28.0180000  -8.3990000
  30.0460000  28.2590000  -7.8830000  18.7250000  25.8380000  -1.2830000
  18.1250000  26.5710000  -1.1420000  19.2720000  25.8210000  -0.4970000
  18.7180000  25.9300000  -1.1640000  20.0810000  24.7390000 -13.2400000
  20.4810000  25.3240000 -12.5960000  19.6170000  25.3240000 -13.8390000
  20.0730000  24.8890000 -13.2340000  30.1600000  26.5340000  -5.3410000
  29.9970000  26.8430000  -6.2320000  29.2990000  26.2700000  -5.0180000
  30.0290000  26.5400000  -5.4130000  30.3820000  20.7550000  -1.2030000
  30.3790000  20.4650000  -2.1150000  29.7100000  21.4360000  -1.1660000
  30.2950000  20.8050000  -1.3150000  22.0410000  19.4180000 -17.1950000
  22.0420000  20.1600000 -16.5910000  22.5450000  19.7220000 -17.9490000
  22.1060000  19.5520000 -17.2140000  30.0920000  30.1970000  -2.8050000
  29.2740000  30.0410000  -3.2760000  30.1400000  31.1490000  -2.7160000
  29.9940000  30.2990000  -2.8540000  34.4420000  24.8930000  -1.5740000
  35.1550000  24.2610000  -1.4790000  34.8820000  25.7300000  -1.7200000
  34.5890000  24.9190000  -1.5810000  20.4710000  26.6750000  -8.0520000
  19.6920000  27.1810000  -7.8210000  20.2090000  25.7620000  -7.9290000
  20.3380000  26.6230000  -8.0070000  23.5670000  30.8320000 -10.9460000
  23.4800000  31.6120000 -10.3970000  23.6390000  30.1080000 -10.3230000
  23.5650000  30.8390000 -10.7960000  19.1980000  21.9160000 -15.7410000
  19.1410000  21.6620000 -16.6620000  18.6500000  22.6980000 -15.6730000
  19.1200000  21.9840000 -15.8500000  23.6690000  25.9730000  -3.7620000
  23.5780000  25.8530000  -4.7070000  22.9450000  26.5510000  -3.5240000
  23.5650000  26.0320000  -3.8530000  24.7510000  19.4890000 -12.3100000
  24.3460000  19.1580000 -11.5080000  24.8580000  18.7150000 -12.8620000
  24.7130000  19.3480000 -12.2780000  25.2940000  25.5350000 -14.4240000
  25.6670000  25.4700000 -15.3030000  24.3890000  25.2390000 -14.5250000
  25.2260000  25.4880000 -14.5490000  27.4390000  22.4320000 -12.0390000
  26.5870000  22.2940000 -12.4510000  27.4890000  23.3790000 -11.9030000
  27.3370000  22.5360000 -12.0740000  22.3110000  23.1000000  -2.8480000
  23.1020000  23.1330000  -3.3850000  21.9510000  23.9860000  -2.8960000
  22.3660000  23.2170000  -2.9230000  28.4840000  26.1030000 -18.8000000
  28.4650000  26.7530000 -18.0980000  28.8390000  25.3150000 -18.3880000
  28.5270000  26.0860000 -18.6580000  33.4670000  21.3530000  -1.3790000
  33.5280000  21.0060000  -2.2690000  32.5260000  21.4010000  -1.2050000
  33.3540000  21.3150000  -1.4710000  28.1570000  20.6060000 -13.9480000
  27.9320000  21.3910000 -13.4490000  29.0560000  20.7580000 -14.2400000
  28.2440000  20.7260000 -13.9210000  33.5840000  20.3260000  -9.0780000
  34.4550000  19.9330000  -9.0210000  33.4850000  20.5570000 -10.0010000
  33.6830000  20.3050000  -9.1890000  30.4920000  20.5930000  -3.9440000
  30.2320000  19.8170000  -4.4410000  31.4480000  20.5980000  -3.9920000
  30.5810000  20.4940000  -4.0140000  33.6090000  24.1910000 -13.8300000
  33.3880000  23.9410000 -12.9320000  34.4250000  23.7250000 -14.0130000
  33.6850000  24.0990000 -13.7380000  27.4120000  22.7410000  -8.6630000
  26.5610000  22.3100000  -8.7500000  27.5110000  22.8880000  -7.7220000
  27.3150000  22.7050000  -8.5540000  26.0430000  19.7620000  -1.5120000
  25.4900000  20.0730000  -0.7960000  26.1040000  20.5080000  -2.1090000
  25.9800000  19.8970000  -1.4970000  33.3570000  31.5480000  -1.9750000
  32.7170000  31.0150000  -1.5030000  33.3190000  31.2250000  -2.8760000
  33.2700000  31.4380000  -2.0300000  21.3870000  22.8960000  -9.0490000
  21.2930000  22.4290000  -9.8790000  22.2100000  22.5730000  -8.6840000
  21.4800000  22.7950000  -9.1080000  23.5500000  22.1540000  -7.7930000
  24.0020000  21.5750000  -7.1790000  24.1130000  22.1690000  -8.5660000
  23.6800000  22.0820000  -7.8130000  20.1320000  25.2540000  -3.5240000
  19.5660000  25.6150000  -4.2060000  19.6360000  25.3700000  -2.7140000
  19.9960000  25.3150000  -3.5080000  33.4510000  30.4240000  -4.3740000
  32.8410000  29.6880000  -4.3180000  33.0190000  31.0480000  -4.9570000
  33.3180000  30.4090000  -4.4410000  22.5490000  31.0120000  -5.9490000
  22.0880000  31.3560000  -6.7140000  22.6300000  30.0740000  -6.1210000
  22.5000000  30.9360000  -6.0690000  20.7450000  28.6530000 -13.7640000
  21.7010000  28.6850000 -13.7370000  20.4740000  29.5700000 -13.7260000
  20.8330000  28.7740000 -13.7560000  25.5850000  24.1120000  -0.8210000
  24.8200000  23.7150000  -0.4030000  25.3310000  25.0230000  -0.9690000
  25.4540000  24.1780000  -0.7860000  22.1040000  21.9430000 -15.7930000
  22.4120000  22.0080000 -14.8890000  21.1860000  21.6850000 -15.7140000
  22.0260000  21.9180000 -15.6670000  31.4130000  26.2040000 -13.4090000
  32.0330000  26.6480000 -13.9880000  30.6030000  26.7080000 -13.4940000
  31.3890000  26.3260000 -13.4940000  27.1240000  28.6670000 -12.0360000
  27.6380000  28.0670000 -12.5760000  26.8500000  29.3570000 -12.6400000
  27.1540000  28.6780000 -12.1820000  33.1660000  21.8960000  -4.4770000
  32.8790000  22.7220000  -4.0860000  32.9430000  21.9800000  -5.4040000
  33.1000000  22.0130000  -4.5450000  31.5600000  30.0080000  -0.6830000
  30.7490000  30.0460000  -1.1900000  31.9240000  29.1450000  -0.8780000
  31.5030000  29.9030000  -0.7730000  24.9000000  22.0510000 -10.1250000
  24.7220000  22.6410000 -10.8570000  25.3850000  21.3240000 -10.5150000
  24.9390000  22.0340000 -10.2680000  18.5050000  28.6410000 -11.5480000
  19.1020000  28.8970000 -12.2520000  18.8080000  29.1360000 -10.7860000
  18.6200000  28.7370000 -11.5410000  34.8740000  29.7380000 -10.7620000
  35.7270000  29.3970000 -11.0320000  34.8960000  29.7090000  -9.8060000
  34.9860000  29.6900000 -10.6750000  27.8040000  26.6490000  -2.8570000
  27.0500000  26.3190000  -3.3460000  27.6030000  26.4510000  -1.9430000
  27.6820000  26.5810000  -2.8030000  31.3540000  25.9720000  -0.7880000
  30.5700000  25.9330000  -0.2400000  31.9910000  25.4210000  -0.3340000
  31.3350000  25.8970000  -0.6600000  33.0200000  30.4090000 -15.5470000
  33.4160000  30.7500000 -14.7450000  33.5110000  30.8280000 -16.2540000
  33.1330000  30.5060000 -15.5350000  32.7490000  24.4950000  -3.5850000
  33.4420000  24.6890000  -2.9530000  32.1130000  25.2010000  -3.4670000
  32.7560000  24.6100000  -3.4890000  25.3260000  21.4360000 -24.1260000
  25.5540000  21.4080000 -23.1970000  24.6970000  20.7240000 -24.2390000
  25.2750000  21.3410000 -24.0210000  23.2420000  19.7220000 -24.6200000
  22.6820000  20.1700000 -23.9860000  23.0960000  18.7910000 -24.4530000
  23.1520000  19.6600000 -24.5180000  24.0610000  27.9630000 -35.3720000
  23.9070000  28.4200000 -34.5450000  24.7730000  27.3530000 -35.1800000
  24.1320000  27.9430000 -35.2420000  27.4560000  23.1720000 -24.7670000
  26.8530000  22.5310000 -24.3920000  28.2450000  23.1030000 -24.2290000
  27.4800000  23.0820000 -24.6500000  27.9940000  19.6090000 -18.4890000
  28.8860000  19.3800000 -18.7530000  27.4720000  19.4880000 -19.2820000
  28.0420000  19.5650000 -18.6240000  29.8790000  22.9980000 -23.4990000
  30.0570000  22.1160000 -23.1730000  30.1980000  23.5780000 -22.8070000
  29.9430000  22.9590000 -23.3680000  27.5340000  22.0450000 -36.0110000
  27.2680000  21.5820000 -35.2160000  27.5500000  21.3680000 -36.6870000
  27.5020000  21.8990000 -35.9950000  27.7690000  29.2330000 -22.7270000
  27.6410000  28.3680000 -22.3380000  28.2120000  29.0580000 -23.5580000
  27.8090000  29.1000000 -22.7840000  30.6450000  30.1850000 -35.7080000
  31.4150000  30.2060000 -35.1410000  30.9640000  29.8180000 -36.5320000
  30.7840000  30.1410000 -35.7410000  18.8930000  23.5630000 -24.1700000
  19.1700000  24.1320000 -23.4520000  18.2910000  22.9400000 -23.7630000
  18.8520000  23.5560000 -24.0260000  19.7660000  29.9000000 -21.5770000
  18.8450000  29.6800000 -21.7170000  19.8460000  30.0070000 -20.6300000
  19.6580000  29.8850000 -21.4740000  34.7060000  21.8520000 -34.8730000
  34.8380000  21.7080000 -33.9360000  33.8380000  22.2510000 -34.9330000
  34.6120000  21.8840000 -34.7600000  23.4680000  24.1690000 -30.6000000
  23.0610000  24.1680000 -31.4670000  22.9820000  24.8320000 -30.1090000
  23.3540000  24.2540000 -30.6480000  21.5870000  20.5650000 -22.5820000
  21.7940000  21.4630000 -22.3250000  21.2310000  20.1640000 -21.7890000
  21.5680000  20.6280000 -22.4480000  22.8950000  21.3560000 -31.8820000
  22.1370000  21.3430000 -31.2970000  23.4270000  20.6120000 -31.6010000
  22.8660000  21.2590000 -31.7710000  29.9350000  25.0540000 -21.5830000
  30.5210000  25.3670000 -20.8940000  29.2090000  25.6790000 -21.5830000
  29.9170000  25.1740000 -21.4950000  27.5550000  25.5550000 -32.0510000
  26.7300000  25.5370000 -32.5360000  27.3040000  25.3690000 -31.1460000
  27.4170000  25.5290000 -31.9970000  19.4560000  23.5670000 -18.5290000
  19.2580000  23.6480000 -19.4610000  18.6620000  23.8700000 -18.0880000
  19.3290000  23.6160000 -18.5920000  22.3800000  27.1770000 -37.3810000
  21.7770000  27.9140000 -37.4770000  23.0090000  27.4670000 -36.7200000
  22.3830000  27.3080000 -37.3090000  25.5300000  26.1300000 -27.1060000
  26.4110000  26.4220000 -26.8740000  25.6160000  25.7960000 -27.9990000
  25.6540000  26.1250000 -27.1910000  29.8270000  21.9490000 -28.9220000
  28.8750000  21.8860000 -28.8510000  30.1550000  21.2210000 -28.3940000
  29.7470000  21.8480000 -28.8450000  34.9560000  29.9570000 -26.8000000
  35.3960000  30.4640000 -26.1170000  34.2840000  29.4600000 -26.3340000
  34.9270000  29.9580000 -26.6530000  25.4760000  29.4780000 -19.7360000
  25.3190000  28.5340000 -19.7720000  25.3870000  29.7700000 -20.6430000
  25.4440000  29.3940000 -19.8570000  32.3060000  23.2740000 -35.0580000
  32.4100000  23.6180000 -34.1710000  32.1760000  24.0500000 -35.6030000
  32.3030000  23.4170000 -35.0140000  34.9480000  24.1220000 -27.7310000
  35.8600000  24.1330000 -27.4380000  34.9480000  23.5370000 -28.4890000
  35.0650000  24.0480000 -27.7900000  32.7930000  28.4590000 -25.8800000
  31.9180000  28.2020000 -26.1700000  33.1450000  27.6760000 -25.4560000
  32.7260000  28.3260000 -25.8630000  24.5350000  20.4480000 -37.0710000
  24.8770000  20.4570000 -36.1770000  24.0500000  21.2700000 -37.1490000
  24.5170000  20.5550000 -36.9670000  19.7040000  20.3640000 -27.1670000
  20.5380000  20.8180000 -27.2910000  19.1160000  20.7630000 -27.8070000
  19.7360000  20.4730000 -27.2640000  20.8030000  19.4970000 -20.1550000
  19.9700000  19.0700000 -19.9540000  20.7700000  20.3240000 -19.6750000
  20.6920000  19.5480000 -20.0680000  27.1380000  24.9590000 -29.4170000
  27.2240000  24.1750000 -28.8740000  27.5780000  25.6460000 -28.9170000
  27.2050000  24.9470000 -29.2840000  34.2340000  19.0980000 -35.2030000
  34.3620000  20.0130000 -35.4550000  33.2850000  19.0030000 -35.1180000
  34.1290000  19.2030000 -35.2240000  29.3710000  24.3000000 -35.9410000
  28.7450000  23.5760000 -35.9170000  29.5890000  24.4590000 -35.0230000
  29.3190000  24.2280000 -35.8210000  26.1090000  25.9480000 -23.8210000
  25.2640000  25.6280000 -23.5040000  26.5820000  25.1570000 -24.0800000
  26.0610000  25.8060000 -23.8130000  23.0360000  31.1340000 -19.4870000
  23.8470000  30.6460000 -19.6290000  22.7670000  31.4110000 -20.3630000
  23.1050000  31.1070000 -19.6180000  25.2980000  30.1740000 -22.4590000
  26.1780000  29.8010000 -22.5110000  24.7600000  29.5930000 -22.9960000
  25.3420000  30.0520000 -22.5340000  33.6680000  22.9820000 -30.3520000
  34.3640000  22.5960000 -30.8850000  33.0580000  22.2600000 -30.1970000
  33.6780000  22.8400000 -30.4010000  31.7420000  28.4310000 -22.8100000
  31.1850000  28.0370000 -23.4820000  31.1660000  29.0410000 -22.3500000
  31.5970000  28.4590000 -22.8370000  35.6560000  27.6920000 -19.6160000
  34.8330000  28.0320000 -19.9650000  35.5120000  27.6360000 -18.6710000
  35.5330000  27.7280000 -19.5400000  29.5690000  24.4180000 -33.2770000
  28.7460000  24.7010000 -32.8810000  30.2470000  24.8040000 -32.7220000
  29.5510000  24.5030000 -33.1550000  22.5810000  28.0090000 -25.1840000
  22.2040000  27.8820000 -24.3140000  22.0180000  27.4980000 -25.7660000
  22.4610000  27.9280000 -25.1470000  31.5880000  29.5190000 -29.7290000
  32.1330000  30.0200000 -29.1220000  30.8940000  30.1260000 -29.9860000
  31.5690000  29.6600000 -29.6840000  19.5710000  31.0850000 -28.9080000
  19.9650000  31.0150000 -29.7780000  20.1830000  30.6300000 -28.3310000
  19.7000000  31.0180000 -28.9460000  34.2920000  26.7650000 -33.5360000
  34.2490000  27.3840000 -32.8060000  33.9260000  25.9540000 -33.1840000
  34.2400000  26.7410000 -33.3970000  29.0420000  27.6290000 -33.0570000
  28.3700000  26.9480000 -33.0270000  29.1210000  27.8460000 -33.9860000
  28.9660000  27.5700000 -33.1720000  22.7290000  22.4820000 -19.0940000
  22.5760000  22.7620000 -19.9960000  22.4920000  23.2420000 -18.5630000
  22.6790000  22.6150000 -19.1410000  24.6620000  26.6030000 -19.9880000
  24.5470000  26.3190000 -20.8950000  23.7710000  26.7060000 -19.6550000
  24.5330000  26.5800000 -20.0620000  23.7070000  24.9300000 -25.1420000
  23.1170000  24.1910000 -25.2940000  24.3190000  24.9020000 -25.8770000
  23.7100000  24.8320000 -25.2560000  25.0920000  31.1220000 -27.1100000
  25.0520000  30.1670000 -27.1470000  24.6370000  31.3500000 -26.3000000
  25.0290000  31.0290000 -27.0110000  33.0570000  27.7750000 -20.4280000
  32.3660000  27.1350000 -20.2600000  32.8490000  28.1310000 -21.2910000
  32.9420000  27.7380000 -20.5170000  18.6750000  26.8770000 -33.2910000
  19.3400000  27.4770000 -32.9530000  17.8430000  27.3110000 -33.1020000
  18.6540000  27.0090000 -33.2230000  26.4220000  30.0580000 -36.0020000
  26.0390000  29.7490000 -36.8230000  26.6610000  30.9690000 -36.1770000
  26.4040000  30.1350000 -36.1290000  20.6780000  21.5130000 -30.3240000
  20.4400000  20.6940000 -30.7580000  19.9170000  22.0810000 -30.4510000
  20.5500000  21.4810000 -30.3960000  25.2490000  20.3280000 -34.3200000
  25.4940000  19.4530000 -34.0190000  25.0340000  20.8050000 -33.5190000
  25.2530000  20.2770000 -34.1790000  30.4810000  22.0770000 -31.7820000
  30.1870000  22.7920000 -32.3460000  30.2100000  22.3380000 -30.9020000
  30.4090000  22.2020000 -31.7420000  22.0870000  24.5930000 -36.2860000
  21.1620000  24.3500000 -36.2480000  22.0830000  25.5130000 -36.5510000
  21.9690000  24.6800000 -36.3150000  24.0560000  28.9460000 -32.9970000
  24.8790000  29.4320000 -33.0350000  24.1070000  28.4510000 -32.1800000
  24.1680000  28.9450000 -32.8980000  26.3510000  30.5830000 -32.9950000
  25.8280000  31.2860000 -32.6090000  26.3630000  30.7790000 -33.9310000
  26.2860000  30.6980000 -33.0650000  33.3940000  25.4500000 -36.8310000
  33.8720000  25.0970000 -37.5800000  33.8960000  26.2220000 -36.5680000
  33.5190000  25.5040000 -36.8930000  22.2880000  30.8860000 -22.0010000
  22.2500000  31.2030000 -22.9030000  21.4160000  30.5270000 -21.8360000
  22.1710000  30.8800000 -22.0950000  35.2460000  16.5300000 -27.4320000
  35.3920000  16.9350000 -26.5770000  34.3010000  16.5980000 -27.5710000
  35.1440000  16.5900000 -27.3400000  25.2220000  28.5830000 -24.9470000
  25.5470000  27.7800000 -24.5400000  24.3530000  28.3510000 -25.2730000
  25.1520000  28.4510000 -24.9370000  20.8380000  29.5170000 -18.9780000
  21.6410000  30.0270000 -19.0880000  20.3880000  29.9350000 -18.2440000
  20.8830000  29.6360000 -18.8980000  31.3340000  26.6650000 -29.7180000
  31.8320000  26.4580000 -30.5090000  31.5180000  27.5900000 -29.5540000
  31.4210000  26.7570000 -29.7980000  25.9590000  25.4110000 -35.9770000
  25.4780000  24.5940000 -36.1080000  26.3930000  25.5700000 -36.8150000
  25.9530000  25.3270000 -36.1010000  19.9230000  30.4480000 -35.5190000
  20.6900000  30.1250000 -35.0440000  19.1810000  30.2090000 -34.9640000
  19.9260000  30.3760000 -35.3870000  19.2610000  24.2040000 -26.8230000
  20.0590000  23.8540000 -27.2180000  19.2410000  23.8240000 -25.9450000
  19.3600000  24.1100000 -26.7610000  28.6550000  27.2610000 -29.0950000
  28.2480000  28.0210000 -29.5110000  29.5170000  27.1960000 -29.5050000
  28.7130000  27.3500000 -29.2010000  33.1920000  28.5000000 -31.6130000
  33.8660000  28.9120000 -31.0730000  32.3820000  28.9460000 -31.3670000
  33.1750000  28.6100000 -31.5130000  21.3460000  28.9910000 -28.1100000
  22.3030000  28.9750000 -28.1290000  21.1010000  28.1770000 -27.6700000
  21.4370000  28.8850000 -28.0560000  31.6490000  23.0010000 -25.5710000
  31.1950000  23.4430000 -26.2890000  31.1070000  23.1760000 -24.8020000
  31.5220000  23.0800000 -25.5650000  30.1880000  24.4770000 -27.7610000
  30.8140000  24.9270000 -28.3280000  30.0460000  23.6300000 -28.1850000
  30.2500000  24.4260000 -27.8880000  30.2120000  21.2220000 -35.0050000
  29.4530000  21.4700000 -35.5330000  30.7670000  22.0020000 -35.0040000
  30.1860000  21.3540000 -35.0720000  22.7470000  24.5150000 -33.2880000
  22.6570000  24.2440000 -34.2010000  21.8490000  24.6720000 -32.9950000
  22.6200000  24.5010000 -33.3670000  32.3340000  20.4060000 -30.4920000
  31.6720000  20.8120000 -31.0520000  33.0290000  20.1430000 -31.0950000
  32.3380000  20.4250000 -30.6410000  33.9470000  25.6380000 -25.1130000
  33.6820000  24.9860000 -24.4630000  34.1660000  25.1250000 -25.8910000
  33.9410000  25.4890000 -25.1290000  24.6930000  27.4310000 -30.8880000
  24.8810000  26.6790000 -31.4500000  25.5490000  27.8220000 -30.7180000
  24.8260000  27.3850000 -30.9380000  26.3490000  22.2910000 -21.6480000
  27.2710000  22.3670000 -21.4040000  25.8970000  22.9080000 -21.0730000
  26.4090000  22.3790000 -21.5440000  23.3400000  19.3010000 -28.7290000
  23.5110000  20.2220000 -28.5300000  23.9060000  18.8170000 -28.1280000
  23.4340000  19.3570000 -28.6270000  24.1940000  28.4280000 -28.3360000
  24.4510000  28.0100000 -29.1580000  24.2780000  27.7360000 -27.6800000
  24.2380000  28.2860000 -28.3570000  35.0000000  19.1670000 -18.9130000
  34.4590000  18.6520000 -18.3150000  34.5360000  20.0000000 -19.0000000
  34.8720000  19.2080000 -18.8470000  28.5650000  28.4050000 -35.6770000
  29.2950000  29.0250000 -35.6880000  27.7830000  28.9560000 -35.7080000
  28.5580000  28.5550000 -35.6830000  28.1970000  25.7860000 -26.5610000
  27.7480000  25.0320000 -26.1790000  28.9190000  25.4060000 -27.0610000
  28.2320000  25.6410000 -26.5760000  29.7320000  29.9100000 -24.8490000
  29.4560000  30.7340000 -24.4470000  30.6830000  29.8970000 -24.7400000
  29.8190000  30.0140000 -24.7840000  25.2200000  22.5230000 -32.5780000
  25.0720000  23.4660000 -32.6560000  24.4280000  22.1910000 -32.1540000
  25.1000000  22.6010000 -32.5340000  28.8710000  22.8670000 -20.1590000
  28.4050000  23.4650000 -19.5750000  29.4660000  23.4310000 -20.6540000
  28.8870000  23.0150000 -20.1480000  24.4760000  23.0120000 -35.9830000
  23.5590000  22.7970000 -35.8170000  24.9510000  22.6240000 -35.2480000
  24.4190000  22.9350000 -35.8680000  21.1180000  27.7580000 -22.7120000
  20.4390000  28.3970000 -22.4920000  20.7090000  26.9090000 -22.5490000
  20.9780000  27.7310000 -22.6630000  19.2660000  20.6670000 -24.1300000
  20.1280000  20.6280000 -23.7160000  19.4520000  20.8170000 -25.0570000
  19.4000000  20.6810000 -24.1960000  30.1830000  28.2000000 -26.7630000
  29.9150000  28.8430000 -26.1060000  29.3840000  28.0180000 -27.2590000
  30.0460000  28.2590000 -26.7430000  18.7250000  25.8380000 -20.1430000
  18.1250000  26.5710000 -20.0020000  19.2720000  25.8210000 -19.3570000
  18.7180000  25.9300000 -20.0240000  20.0810000  24.7390000 -32.1000000
  20.4810000  25.3240000 -31.4560000  19.6170000  25.3240000 -32.6990000
  20.0730000  24.8890000 -32.0940000  30.1600000  26.5340000 -24.2010000
  29.9970000  26.8430000 -25.0920000  29.2990000  26.2700000 -23.8780000
  30.0290000  26.5400000 -24.2730000  30.3820000  20.7550000 -20.0630000
  30.3790000  20.4650000 -20.9750000  29.7100000  21.4360000 -20.0260000
  30.2950000  20.8050000 -20.1750000  22.0410000  19.4180000 -36.0550000
  22.0420000  20.1600000 -35.4510000  22.5450000  19.7220000 -36.8090000
  22.1060000  19.5520000 -36.0740000  30.0920000  30.1970000 -21.6650000
  29.2740000  30.0410000 -22.1360000  30.1400000  31.1490000 -21.5760000
  29.9940000  30.2990000 -21.7140000  34.4420000  24.8930000 -20.4340000
  35.1550000  24.2610000 -20.3390000  34.8820000  25.7300000 -20.5800000
  34.5890000  24.9190000 -20.4410000  20.4710000  26.6750000 -26.9120000
  19.6920000  27.1810000 -26.6810000  20.2090000  25.7620000 -26.7890000
  20.3380000  26.6230000 -26.8670000  23.5670000  30.8320000 -29.8060000
  23.4800000  31.6120000 -29.2570000  23.6390000  30.1080000 -29.1830000
  23.5650000  30.8390000 -29.6560000  19.1980000  21.9160000 -34.6010000
  19.1410000  21.6620000 -35.5220000  18.6500000  22.6980000 -34.5330000
  19.1200000  21.9840000 -34.7100000  23.6690000  25.9730000 -22.6220000
  23.5780000  25.8530000 -23.5670000  22.9450000  26.5510000 -22.3840000
  23.5650000  26.0320000 -22.7130000  24.7510000  19.4890000 -31.1700000
  24.3460000  19.1580000 -30.3680000  24.8580000  18.7150000 -31.7220000
  24.7130000  19.3480000 -31.1380000  25.2940000  25.5350000 -33.2840000
  25.6670000  25.4700000 -34.1630000  24.3890000  25.2390000 -33.3850000
  25.2260000  25.4880000 -33.4090000  27.4390000  22.4320000 -30.8990000
  26.5870000  22.2940000 -31.3110000  27.4890000  23.3790000 -30.7630000
  27.3370000  22.5360000 -30.9340000  22.3110000  23.1000000 -21.7080000
  23.1020000  23.1330000 -22.2450000  21.9510000  23.9860000 -21.7560000
  22.3660000  23.2170000 -21.7830000  28.4840000  26.1030000 -37.6600000
  28.4650000  26.7530000 -36.9580000  28.8390000  25.3150000 -37.2480000
  28.5270000  26.0860000 -37.5180000  33.4670000  21.3530000 -20.2390000
  33.5280000  21.0060000 -21.1290000  32.5260000  21.4010000 -20.0650000
  33.3540000  21.3150000 -20.3310000  28.1570000  20.6060000 -32.8080000
  27.9320000  21.3910000 -32.3090000  29.0560000  20.7580000 -33.1000000
  28.2440000  20.7260000 -32.7810000  33.5840000  20.3260000 -27.9380000
  34.4550000  19.9330000 -27.8810000  33.4850000  20.5570000 -28.8610000
  33.6830000  20.3050000 -28.0490000  30.4920000  20.5930000 -22.8040000
  30.2320000  19.8170000 -23.3010000  31.4480000  20.5980000 -22.8520000
  30.5810000  20.4940000 -22.8740000  33.6090000  24.1910000 -32.6900000
  33.3880000  23.9410000 -31.7920000  34.4250000  23.7250000 -32.8730000
  33.6850000  24.0990000 -32.5980000  27.4120000  22.7410000 -27.5230000
  26.5610000  22.3100000 -27.6100000  27.5110000  22.8880000 -26.5820000
  27.3150000  22.7050000 -27.4140000  26.0430000  19.7620000 -20.3720000
  25.4900000  20.0730000 -19.6560000  26.1040000  20.5080000 -20.9690000
  25.9800000  19.8970000 -20.3570000  33.3570000  31.5480000 -20.8350000
  32.7170000  31.0150000 -20.3630000  33.3190000  31.2250000 -21.7360000
  33.2700000  31.4380000 -20.8900000  21.3870000  22.8960000 -27.9090000
  21.2930000  22.4290000 -28.7390000  22.2100000  22.5730000 -27.5440000
  21.4800000  22.7950000 -27.9680000  23.5500000  22.1540000 -26.6530000
  24.0020000  21.5750000 -26.0390000  24.1130000  22.1690000 -27.4260000
  23.6800000  22.0820000 -26.6730000  20.1320000  25.2540000 -22.3840000
  19.5660000  25.6150000 -23.0660000  19.6360000  25.3700000 -21.5740000
  19.9960000  25.3150000 -22.3680000  33.4510000  30.4240000 -23.2340000
  32.8410000  29.6880000 -23.1780000  33.0190000  31.0480000 -23.8170000
  33.3180000  30.4090000 -23.3010000  22.5490000  31.0120000 -24.8090000
  22.0880000  31.3560000 -25.5740000  22.6300000  30.0740000 -24.9810000
  22.5000000  30.9360000 -24.9290000  20.7450000  28.6530000 -32.6240000
  21.7010000  28.6850000 -32.5970000  20.4740000  29.5700000 -32.5860000
  20.8330000  28.7740000 -32.6160000  25.5850000  24.1120000 -19.6810000
  24.8200000  23.7150000 -19.2630000  25.3310000  25.0230000 -19.8290000
  25.4540000  24.1780000 -19.6460000  22.1040000  21.9430000 -34.6530000
  22.4120000  22.0080000 -33.7490000  21.1860000  21.6850000 -34.5740000
  22.0260000  21.9180000 -34.5270000  31.4130000  26.2040000 -32.2690000
  32.0330000  26.6480000 -32.8480000  30.6030000  26.7080000 -32.3540000
  31.3890000  26.3260000 -32.3540000  27.1240000  28.6670000 -30.8960000
  27.6380000  28.0670000 -31.4360000  26.8500000  29.3570000 -31.5000000
  27.1540000  28.6780000 -31.0420000  33.1660000  21.8960000 -23.3370000
  32.8790000  22.7220000 -22.9460000  32.9430000  21.9800000 -24.2640000
  33.1000000  22.0130000 -23.4050000  31.5600000  30.0080000 -19.5430000
  30.7490000  30.0460000 -20.0500000  31.9240000  29.1450000 -19.7380000
  31.5030000  29.9030000 -19.6330000  24.9000000  22.0510000 -28.9850000
  24.7220000  22.6410000 -29.7170000  25.3850000  21.3240000 -29.3750000
  24.9390000  22.0340000 -29.1280000  18.5050000  28.6410000 -30.4080000
  19.1020000  28.8970000 -31.1120000  18.8080000  29.1360000 -29.6460000
  18.6200000  28.7370000 -30.4010000  34.8740000  29.7380000 -29.6220000
  35.7270000  29.3970000 -29.8920000  34.8960000  29.7090000 -28.6660000
  34.9860000  29.6900000 -29.5350000  27.8040000  26.6490000 -21.7170000
  27.0500000  26.3190000 -22.2060000  27.6030000  26.4510000 -20.8030000
  27.6820000  26.5810000 -21.6630000  31.3540000  25.9720000 -19.6480000
  30.5700000  25.9330000 -19.1000000  31.9910000  25.4210000 -19.1940000
  31.3350000  25.8970000 -19.5200000  33.0200000  30.4090000 -34.4070000
  33.4160000  30.7500000 -33.6050000  33.5110000  30.8280000 -35.1140000
  33.1330000  30.5060000 -34.3950000  32.7490000  24.4950000 -22.4450000
  33.4420000  24.6890000 -21.8130000  32.1130000  25.2010000 -22.3270000
  32.7560000  24.6100000 -22.3490000  25.3260000  21.4360000 -42.9860000
  25.5540000  21.4080000 -42.0570000  24.6970000  20.7240000 -43.0990000
  25.2750000  21.3410000 -42.8810000  23.2420000  19.7220000 -43.4800000
  22.6820000  20.1700000 -42.8460000  23.0960000  18.7910000 -43.3130000
  23.1520000  19.6600000 -43.3780000  27.4560000  23.1720000 -43.6270000
  26.8530000  22.5310000 -43.2520000  28.2450000  23.1030000 -43.0890000
  27.4800000  23.0820000 -43.5100000  27.9940000  19.6090000 -37.3490000
  28.8860000  19.3800000 -37.6130000  27.4720000  19.4880000 -38.1420000
  28.0420000  19.5650000 -37.4840000  29.8790000  22.9980000 -42.3580000
  30.0570000  22.1160000 -42.0330000  30.1980000  23.5780000 -41.6670000
  29.9430000  22.9590000 -42.2280000  27.7690000  29.2330000 -41.5870000
  27.6410000  28.3680000 -41.1980000  28.2120000  29.0580000 -42.4180000
  27.8090000  29.1000000 -41.6440000  18.8930000  23.5630000 -43.0300000
  19.1700000  24.1320000 -42.3120000  18.2910000  22.9400000 -42.6230000
  18.8520000  23.5560000 -42.8860000  19.7660000  29.9000000 -40.4370000
  18.8450000  29.6800000 -40.5770000  19.8460000  30.0070000 -39.4900000
  19.6580000  29.8850000 -40.3340000  21.5870000  20.5650000 -41.4420000
  21.7940000  21.4630000 -41.1850000  21.2310000  20.1640000 -40.6490000
  21.5680000  20.6280000 -41.3080000  29.9350000  25.0540000 -40.4430000
  30.5210000  25.3670000 -39.7540000  29.2090000  25.6790000 -40.4430000
  29.9170000  25.1740000 -40.3550000  19.4560000  23.5670000 -37.3890000
  19.2580000  23.6480000 -38.3210000  18.6620000  23.8700000 -36.9470000
  19.3290000  23.6160000 -37.4520000  25.5300000  26.1300000 -45.9660000
  26.4110000  26.4220000 -45.7330000  25.6160000  25.7960000 -46.8580000
  25.6540000  26.1250000 -46.0510000  29.8270000  21.9490000 -47.7820000
  28.8750000  21.8860000 -47.7110000  30.1550000  21.2210000 -47.2540000
  29.7470000  21.8480000 -47.7050000  34.9560000  29.9570000 -45.6600000
  35.3960000  30.4640000 -44.9770000  34.2840000  29.4600000 -45.1940000
  34.9270000  29.9580000 -45.5130000  25.4760000  29.4780000 -38.5960000
  25.3190000  28.5340000 -38.6320000  25.3870000  29.7700000 -39.5030000
  25.4440000  29.3940000 -38.7170000  34.9480000  24.1220000 -46.5910000
  35.8600000  24.1330000 -46.2980000  34.9480000  23.5370000 -47.3490000
  35.0650000  24.0480000 -46.6500000  32.7930000  28.4590000 -44.7400000
  31.9180000  28.2020000 -45.0300000  33.1450000  27.6760000 -44.3150000
  32.7260000  28.3260000 -44.7230000  19.7040000  20.3640000 -46.0270000
  20.5380000  20.8180000 -46.1510000  19.1160000  20.7630000 -46.6670000
  19.7360000  20.4730000 -46.1240000  20.8030000  19.4970000 -39.0150000
  19.9700000  19.0700000 -38.8140000  20.7700000  20.3240000 -38.5350000
  20.6920000  19.5480000 -38.9280000  27.1380000  24.9590000 -48.2770000
  27.2240000  24.1750000 -47.7330000  27.5780000  25.6460000 -47.7770000
  27.2050000  24.9470000 -48.1440000  26.1090000  25.9480000 -42.6810000
  25.2640000  25.6280000 -42.3640000  26.5820000  25.1570000 -42.9400000
  26.0610000  25.8060000 -42.6730000  23.0360000  31.1340000 -38.3470000
  23.8470000  30.6460000 -38.4890000  22.7670000  31.4110000 -39.2230000
  23.1050000  31.1070000 -38.4780000  25.2980000  30.1740000 -41.3190000
  26.1780000  29.8010000 -41.3710000  24.7600000  29.5930000 -41.8560000
  25.3420000  30.0520000 -41.3940000  31.7420000  28.4310000 -41.6700000
  31.1850000  28.0370000 -42.3420000  31.1660000  29.0410000 -41.2100000
  31.5970000  28.4590000 -41.6970000  35.6560000  27.6920000 -38.4760000
  34.8330000  28.0320000 -38.8250000  35.5120000  27.6360000 -37.5310000
  35.5330000  27.7280000 -38.4000000  22.5810000  28.0090000 -44.0440000
  22.2040000  27.8820000 -43.1740000  22.0180000  27.4980000 -44.6260000
  22.4610000  27.9280000 -44.0070000  31.5880000  29.5190000 -48.5890000
  32.1330000  30.0200000 -47.9820000  30.8940000  30.1260000 -48.8460000
  31.5690000  29.6600000 -48.5440000  22.7290000  22.4820000 -37.9530000
  22.5760000  22.7620000 -38.8560000  22.4920000  23.2420000 -37.4230000
  22.6790000  22.6150000 -38.0010000  24.6620000  26.6030000 -38.8480000
  24.5470000  26.3190000 -39.7550000  23.7710000  26.7060000 -38.5150000
  24.5330000  26.5800000 -38.9220000  23.7070000  24.9300000 -44.0020000
  23.1170000  24.1910000 -44.1540000  24.3190000  24.9020000 -44.7370000
  23.7100000  24.8320000 -44.1160000  25.0920000  31.1220000 -45.9700000
  25.0520000  30.1670000 -46.0070000  24.6370000  31.3500000 -45.1600000
  25.0290000  31.0290000 -45.8710000  33.0570000  27.7750000 -39.2880000
  32.3660000  27.1350000 -39.1200000  32.8490000  28.1310000 -40.1510000
  32.9420000  27.7380000 -39.3770000  22.2880000  30.8860000 -40.8610000
  22.2500000  31.2030000 -41.7630000  21.4160000  30.5270000 -40.6960000
  22.1710000  30.8800000 -40.9550000  35.2460000  16.5300000 -46.2920000
  35.3920000  16.9350000 -45.4370000  34.3010000  16.5980000 -46.4310000
  35.1440000  16.5900000 -46.2000000  25.2220000  28.5830000 -43.8070000
  25.5470000  27.7800000 -43.4000000  24.3530000  28.3510000 -44.1330000
  25.1520000  28.4510000 -43.7970000  20.8380000  29.5170000 -37.8380000
  21.6410000  30.0270000 -37.9470000  20.3880000  29.9350000 -37.1040000
  20.8830000  29.6360000 -37.7580000  19.2610000  24.2040000 -45.6830000
  20.0590000  23.8540000 -46.0780000  19.2410000  23.8240000 -44.8050000
  19.3600000  24.1100000 -45.6210000  28.6550000  27.2610000 -47.9550000
  28.2480000  28.0210000 -48.3710000  29.5170000  27.1960000 -48.3650000
  28.7130000  27.3500000 -48.0610000  21.3460000  28.9910000 -46.9700000
  22.3030000  28.9750000 -46.9890000  21.1010000  28.1770000 -46.5300000
  21.4370000  28.8850000 -46.9160000  31.6490000  23.0010000 -44.4310000
  31.1950000  23.4430000 -45.1490000  31.1070000  23.1760000 -43.6620000
  31.5220000  23.0800000 -44.4250000  30.1880000  24.4770000 -46.6210000
  30.8140000  24.9270000 -47.1880000  30.0460000  23.6300000 -47.0450000
  30.2500000  24.4260000 -46.7480000  33.9470000  25.6380000 -43.9730000
  33.6820000  24.9860000 -43.3230000  34.1660000  25.1250000 -44.7510000
  33.9410000  25.4890000 -43.9890000  26.3490000  22.2910000 -40.5080000
  27.2710000  22.3670000 -40.2640000  25.8970000  22.9080000 -39.9330000
  26.4090000  22.3790000 -40.4040000  23.3400000  19.3010000 -47.5890000
  23.5110000  20.2220000 -47.3900000  23.9060000  18.8170000 -46.9880000
  23.4340000  19.3570000 -47.4870000  24.1940000  28.4280000 -47.1960000
  24.4510000  28.0100000 -48.0180000  24.2780000  27.7360000 -46.5400000
  24.2380000  28.2860000 -47.2170000  35.0000000  19.1670000 -37.7730000
  34.4590000  18.6520000 -37.1750000  34.5360000  20.0000000 -37.8600000
  34.8720000  19.2080000 -37.7070000  28.1970000  25.7860000 -45.4210000
  27.7480000  25.0320000 -45.0390000  28.9190000  25.4060000 -45.9210000
  28.2320000  25.6410000 -45.4360000  29.7320000  29.9100000 -43.7090000
  29.4560000  30.7340000 -43.3070000  30.6830000  29.8970000 -43.6000000
  29.8190000  30.0140000 -43.6440000  28.8710000  22.8670000 -39.0190000
  28.4050000  23.4650000 -38.4350000  29.4660000  23.4310000 -39.5140000
  28.8870000  23.0150000 -39.0080000  21.1180000  27.7580000 -41.5720000
  20.4390000  28.3970000 -41.3520000  20.7090000  26.9090000 -41.4090000
  20.9780000  27.7310000 -41.5230000  19.2660000  20.6670000 -42.9900000
  20.1280000  20.6280000 -42.5760000  19.4520000  20.8170000 -43.9170000
  19.4000000  20.6810000 -43.0560000  30.1830000  28.2000000 -45.6230000
  29.9150000  28.8430000 -44.9650000  29.3840000  28.0180000 -46.1190000
  30.0460000  28.2590000 -45.6030000  18.7250000  25.8380000 -39.0030000
  18.1250000  26.5710000 -38.8620000  19.2720000  25.8210000 -38.2170000
  18.7180000  25.9300000 -38.8840000  30.1600000  26.5340000 -43.0610000
  29.9970000  26.8430000 -43.9520000  29.2990000  26.2700000 -42.7380000
  30.0290000  26.5400000 -43.1330000  30.3820000  20.7550000 -38.9230000
  30.3790000  20.4650000 -39.8350000  29.7100000  21.4360000 -38.8860000
  30.2950000  20.8050000 -39.0350000  30.0920000  30.1970000 -40.5250000
  29.2740000  30.0410000 -40.9960000  30.1400000  31.1490000 -40.4360000
  29.9940000  30.2990000 -40.5740000  34.4420000  24.8930000 -39.2940000
  35.1550000  24.2610000 -39.1990000  34.8820000  25.7300000 -39.4400000
  34.5890000  24.9190000 -39.3010000  20.4710000  26.6750000 -45.7720000
  19.6920000  27.1810000 -45.5410000  20.2090000  25.7620000 -45.6490000
  20.3380000  26.6230000 -45.7270000  23.5670000  30.8320000 -48.6660000
  23.4800000  31.6120000 -48.1170000  23.6390000  30.1080000 -48.0430000
  23.5650000  30.8390000 -48.5160000  23.6690000  25.9730000 -41.4820000
  23.5780000  25.8530000 -42.4270000  22.9450000  26.5510000 -41.2440000
  23.5650000  26.0320000 -41.5730000  22.3110000  23.1000000 -40.5680000
  23.1020000  23.1330000 -41.1050000  21.9510000  23.9860000 -40.6160000
  22.3660000  23.2170000 -40.6430000  33.4670000  21.3530000 -39.0990000
  33.5280000  21.0060000 -39.9890000  32.5260000  21.4010000 -38.9250000
  33.3540000  21.3150000 -39.1910000  33.5840000  20.3260000 -46.7980000
  34.4550000  19.9330000 -46.7410000  33.4850000  20.5570000 -47.7210000
  33.6830000  20.3050000 -46.9090000  30.4920000  20.5930000 -41.6640000
  30.2320000  19.8170000 -42.1610000  31.4480000  20.5980000 -41.7120000
  30.5810000  20.4940000 -41.7330000  27.4120000  22.7410000 -46.3830000
  26.5610000  22.3100000 -46.4700000  27.5110000  22.8880000 -45.4420000
  27.3150000  22.7050000 -46.2740000  26.0430000  19.7620000 -39.2320000
  25.4900000  20.0730000 -38.5160000  26.1040000  20.5080000 -39.8290000
  25.9800000  19.8970000 -39.2170000  33.3570000  31.5480000 -39.6950000
  32.7170000  31.0150000 -39.2230000  33.3190000  31.2250000 -40.5960000
  33.2700000  31.4380000 -39.7500000  21.3870000  22.8960000 -46.7690000
  21.2930000  22.4290000 -47.5990000  22.2100000  22.5730000 -46.4040000
  21.4800000  22.7950000 -46.8280000  23.5500000  22.1540000 -45.5130000
  24.0020000  21.5750000 -44.8990000  24.1130000  22.1690000 -46.2860000
  23.6800000  22.0820000 -45.5330000  20.1320000  25.2540000 -41.2440000
  19.5660000  25.6150000 -41.9260000  19.6360000  25.3700000 -40.4340000
  19.9960000  25.3150000 -41.2280000  33.4510000  30.4240000 -42.0940000
  32.8410000  29.6880000 -42.0380000  33.0190000  31.0480000 -42.6770000
  33.3180000  30.4090000 -42.1610000  22.5490000  31.0120000 -43.6690000
  22.0880000  31.3560000 -44.4340000  22.6300000  30.0740000 -43.8400000
  22.5000000  30.9360000 -43.7890000  25.5850000  24.1120000 -38.5410000
  24.8200000  23.7150000 -38.1230000  25.3310000  25.0230000 -38.6890000
  25.4540000  24.1780000 -38.5060000  33.1660000  21.8960000 -42.1970000
  32.8790000  22.7220000 -41.8060000  32.9430000  21.9800000 -43.1240000
  33.1000000  22.0130000 -42.2650000  31.5600000  30.0080000 -38.4030000
  30.7490000  30.0460000 -38.9100000  31.9240000  29.1450000 -38.5980000
  31.5030000  29.9030000 -38.4930000  24.9000000  22.0510000 -47.8450000
  24.7220000  22.6410000 -48.5770000  25.3850000  21.3240000 -48.2350000
  24.9390000  22.0340000 -47.9880000  34.8740000  29.7380000 -48.4820000
  35.7270000  29.3970000 -48.7520000  34.8960000  29.7090000 -47.5260000
  34.9860000  29.6900000 -48.3950000  27.8040000  26.6490000 -40.5770000
  27.0500000  26.3190000 -41.0650000  27.6030000  26.4510000 -39.6630000
  27.6820000  26.5810000 -40.5230000  31.3540000  25.9720000 -38.5080000
  30.5700000  25.9330000 -37.9600000  31.9910000  25.4210000 -38.0540000
  31.3350000  25.8970000 -38.3800000  32.7490000  24.4950000 -41.3050000
  33.4420000  24.6890000 -40.6730000  32.1130000  25.2010000 -41.1870000
  32.7560000  24.6100000 -41.2090000  27.4900000  14.1990000  44.7380000
  27.3160000  14.3600000  45.6650000  26.7250000  13.7130000  44.4320000
  27.3700000  14.1570000  44.8180000  24.0610000   9.0960000  40.0680000
  23.9070000   9.5530000  40.8950000  24.7730000   8.4860000  40.2600000
  24.1320000   9.0760000  40.1980000  34.2220000  15.2550000  38.2550000
  33.3600000  15.5830000  37.9980000  34.1260000  14.3030000  38.2530000
  34.0990000  15.1750000  38.2220000  20.9480000  15.3520000  45.0320000
  20.9860000  16.2450000  44.6870000  20.1490000  15.3310000  45.5580000
  20.8510000  15.4640000  45.0550000  25.6590000  17.1420000  41.7200000
  24.8600000  16.6150000  41.7300000  26.0030000  17.0390000  40.8330000
  25.6010000  17.0610000  41.6080000  29.5670000  12.1270000  44.1870000
  29.1410000  11.5200000  43.5830000  28.9040000  12.7940000  44.3650000
  29.4280000  12.1350000  44.1330000  27.5340000   3.1780000  39.4300000
  27.2680000   2.7150000  40.2240000  27.5500000   2.5010000  38.7530000
  27.5020000   3.0320000  39.4450000  30.6450000  11.3180000  39.7320000
  31.4150000  11.3390000  40.2990000  30.9640000  10.9510000  38.9090000
  30.7840000  11.2740000  39.6990000  34.3630000  12.5550000  38.4800000
  34.4050000  12.4210000  37.5320000  35.2490000  12.8220000  38.7220000
  34.4820000  12.5720000  38.3890000  34.7060000   2.9850000  40.5670000
  34.8380000   2.8410000  41.5050000  33.8380000   3.3840000  40.5070000
  34.6120000   3.0170000  40.6800000  31.3560000  14.7220000  45.0680000
  31.5320000  15.5720000  44.6650000  30.5970000  14.3850000  44.5940000
  31.2820000  14.7880000  44.9570000  31.1460000  18.0470000  46.3200000
  31.7320000  18.7840000  46.1450000  30.3640000  18.2330000  45.8020000
  31.1210000  18.1650000  46.2320000  23.4680000   5.3020000  44.8400000
  23.0610000   5.3010000  43.9730000  22.9820000   5.9650000  45.3320000
  23.3540000   5.3870000  44.7930000  22.8950000   2.4890000  43.5580000
  22.1370000   2.4760000  44.1430000  23.4270000   1.7450000  43.8390000
  22.8660000   2.3920000  43.6690000  27.5550000   6.6880000  43.3890000
  26.7300000   6.6700000  42.9040000  27.3040000   6.5020000  44.2940000
  27.4170000   6.6620000  43.4430000  24.6690000  16.3530000  48.0070000
  24.4080000  15.9780000  48.8480000  25.4000000  15.8080000  47.7180000
  24.7290000  16.2350000  48.0770000  22.9070000  14.5460000  46.7220000
  22.1830000  14.8490000  46.1730000  23.5010000  15.2960000  46.7690000
  22.8910000  14.6810000  46.6570000  22.3800000   8.3100000  38.0590000
  21.7770000   9.0470000  37.9640000  23.0090000   8.6000000  38.7200000
  22.3830000   8.4410000  38.1320000  26.8070000  16.7720000  39.3520000
  27.2660000  15.9500000  39.5240000  27.5050000  17.4120000  39.2140000
  26.9550000  16.7490000  39.3570000  25.5300000   7.2630000  48.3340000
  26.4110000   7.5550000  48.5670000  25.6160000   6.9290000  47.4420000
  25.6540000   7.2580000  48.2500000  29.8270000   3.0820000  46.5180000
  28.8750000   3.0190000  46.5890000  30.1550000   2.3540000  47.0470000
  29.7470000   2.9810000  46.5950000  34.9560000  11.0900000  48.6400000
  35.3960000  11.5970000  49.3230000  34.2840000  10.5930000  49.1070000
  34.9270000  11.0910000  48.7870000  29.6830000  13.9190000  39.8070000
  29.9870000  13.0260000  39.9630000  30.2100000  14.4590000  40.3950000
  29.7890000  13.8740000  39.9010000  32.3060000   4.4070000  40.3820000
  32.4100000   4.7510000  41.2690000  32.1760000   5.1830000  39.8380000
  32.3030000   4.5500000  40.4270000  34.9480000   5.2550000  47.7090000
  35.8600000   5.2660000  48.0030000  34.9480000   4.6700000  46.9520000
  35.0650000   5.1810000  47.6500000  24.5350000   1.5810000  38.3690000
  24.8770000   1.5900000  39.2630000  24.0500000   2.4030000  38.2910000
  24.5170000   1.6880000  38.4730000  19.7040000   1.4970000  48.2730000
  20.5380000   1.9510000  48.1500000  19.1160000   1.8960000  47.6330000
  19.7360000   1.6060000  48.1770000  27.1380000   6.0920000  46.0230000
  27.2240000   5.3080000  46.5670000  27.5780000   6.7790000  46.5230000
  27.2050000   6.0800000  46.1570000  34.2340000   0.2310000  40.2380000
  34.3620000   1.1460000  39.9860000  33.2850000   0.1360000  40.3220000
  34.1290000   0.3360000  40.2170000  20.2130000  18.3140000  42.5430000
  19.4320000  18.1830000  42.0050000  20.1830000  19.2390000  42.7870000
  20.1090000  18.4160000  42.5050000  26.5660000  14.5800000  47.2320000
  26.0860000  13.7720000  47.4090000  27.2950000  14.5660000  47.8520000
  26.5980000  14.4750000  47.3340000  29.3710000   5.4330000  39.5000000
  28.7450000   4.7090000  39.5230000  29.5890000   5.5920000  40.4170000
  29.3190000   5.3610000  39.6190000  21.9440000  16.8390000  41.0770000
  21.3620000  17.3370000  41.6500000  22.1730000  17.4500000  40.3760000
  21.8990000  16.9810000  41.0600000  33.6680000   4.1150000  45.0890000
  34.3640000   3.7290000  44.5550000  33.0580000   3.3930000  45.2430000
  33.6780000   3.9730000  45.0400000  29.5690000   5.5510000  42.1630000
  28.7460000   5.8340000  42.5590000  30.2470000   5.9370000  42.7180000
  29.5510000   5.6360000  42.2850000  31.5880000  10.6520000  45.7120000
  32.1330000  11.1530000  46.3180000  30.8940000  11.2590000  45.4550000
  31.5690000  10.7930000  45.7570000  19.5710000  12.2180000  46.5320000
  19.9650000  12.1480000  45.6620000  20.1830000  11.7630000  47.1100000
  19.7000000  12.1510000  46.4940000  34.2920000   7.8980000  41.9040000
  34.2490000   8.5170000  42.6350000  33.9260000   7.0870000  42.2570000
  34.2400000   7.8740000  42.0430000  29.0420000   8.7620000  42.3830000
  28.3700000   8.0810000  42.4130000  29.1210000   8.9790000  41.4550000
  28.9660000   8.7030000  42.2680000  25.0920000  12.2550000  48.3300000
  25.0520000  11.3000000  48.2930000  24.6370000  12.4830000  49.1400000
  25.0290000  12.1620000  48.4300000  18.6750000   8.0100000  42.1500000
  19.3400000   8.6100000  42.4880000  17.8430000   8.4440000  42.3390000
  18.6540000   8.1420000  42.2180000  21.0080000  12.4550000  44.3520000
  21.6870000  12.1750000  44.9650000  21.1060000  13.4050000  44.3030000
  21.1070000  12.5410000  44.4250000  26.4220000  11.1910000  39.4390000
  26.0390000  10.8820000  38.6170000  26.6610000  12.1020000  39.2630000
  26.4040000  11.2680000  39.3120000  20.6780000   2.6460000  45.1170000
  20.4400000   1.8270000  44.6830000  19.9170000   3.2140000  44.9890000
  20.5500000   2.6140000  45.0440000  25.2490000   1.4610000  41.1200000
  25.4940000   0.5860000  41.4220000  25.0340000   1.9380000  41.9220000
  25.2530000   1.4100000  41.2610000  30.4810000   3.2100000  43.6580000
  30.1870000   3.9250000  43.0940000  30.2100000   3.4710000  44.5380000
  30.4090000   3.3350000  43.6980000  34.4340000  13.7620000  45.3600000
  33.5190000  13.7720000  45.0770000  34.5560000  12.8940000  45.7440000
  34.3320000  13.6520000  45.3730000  22.0870000   5.7260000  39.1540000
  21.1620000   5.4830000  39.1920000  22.0830000   6.6460000  38.8890000
  21.9690000   5.8130000  39.1250000  24.0560000  10.0790000  42.4430000
  24.8790000  10.5650000  42.4050000  24.1070000   9.5840000  43.2600000
  24.1680000  10.0780000  42.5430000  20.7470000  17.9540000  46.5190000
  20.2050000  18.3770000  47.1870000  21.6460000  18.1510000  46.7820000
  20.7920000  18.0340000  46.6380000  26.3510000  11.7160000  42.4450000
  25.8280000  12.4190000  42.8320000  26.3630000  11.9120000  41.5100000
  26.2860000  11.8310000  42.3750000  33.3940000   6.5830000  38.6100000
  33.8720000   6.2300000  37.8610000  33.8960000   7.3550000  38.8720000
  33.5190000   6.6370000  38.5470000  19.9340000  15.7710000  48.7570000
  20.5890000  16.1320000  48.1600000  19.2560000  15.4160000  48.1830000
  19.9310000  15.7720000  48.6070000  35.2460000  -2.3370000  48.0080000
  35.3920000  -1.9320000  48.8630000  34.3010000  -2.2690000  47.8690000
  35.1440000  -2.2770000  48.1010000  31.3340000   7.7980000  45.7230000
  31.8320000   7.5910000  44.9320000  31.5180000   8.7230000  45.8870000
  31.4210000   7.8900000  45.6420000  25.9590000   6.5440000  39.4640000
  25.4780000   5.7270000  39.3320000  26.3930000   6.7030000  38.6250000
  25.9530000   6.4600000  39.3390000  19.9230000  11.5810000  39.9210000
  20.6900000  11.2580000  40.3970000  19.1810000  11.3420000  40.4760000
  19.9260000  11.5090000  40.0530000  28.6550000   8.3940000  46.3450000
  28.2480000   9.1540000  45.9300000  29.5170000   8.3290000  45.9350000
  28.7130000   8.4830000  46.2390000  33.1920000   9.6330000  43.8270000
  33.8660000  10.0450000  44.3680000  32.3820000  10.0790000  44.0730000
  33.1750000   9.7430000  43.9280000  21.3460000  10.1240000  47.3300000
  22.3030000  10.1080000  47.3120000  21.1010000   9.3100000  47.7700000
  21.4370000  10.0180000  47.3850000  30.1880000   5.6100000  47.6800000
  30.8140000   6.0600000  47.1130000  30.0460000   4.7630000  47.2550000
  30.2500000   5.5590000  47.5530000  30.2120000   2.3550000  40.4360000
  29.4530000   2.6030000  39.9070000  30.7670000   3.1350000  40.4370000
  30.1860000   2.4870000  40.3680000  22.7470000   5.6480000  42.1530000
  22.6570000   5.3770000  41.2390000  21.8490000   5.8050000  42.4450000
  22.6200000   5.6340000  42.0730000  32.3340000   1.5390000  44.9480000
  31.6720000   1.9450000  44.3880000  33.0290000   1.2760000  44.3450000
  32.3380000   1.5580000  44.8000000  24.6930000   8.5640000  44.5530000
  24.8810000   7.8120000  43.9900000  25.5490000   8.9550000  44.7230000
  24.8260000   8.5180000  44.5030000  23.3400000   0.4340000  46.7120000
  23.5110000   1.3550000  46.9100000  23.9060000  -0.0500000  47.3120000
  23.4340000   0.4900000  46.8140000  27.1430000  13.7710000  38.8360000
  27.9870000  13.7330000  39.2870000  27.3660000  13.9760000  37.9280000
  27.2800000  13.7920000  38.7780000  24.1940000   9.5610000  47.1050000
  24.4510000   9.1430000  46.2820000  24.2780000   8.8690000  47.7600000
  24.2380000   9.4190000  47.0830000  31.5060000  14.0160000  47.5640000
  31.6040000  14.2630000  46.6430000  30.6520000  14.3660000  47.8150000
  31.4090000  14.0920000  47.4780000  28.8960000  18.4300000  44.9030000
  28.7110000  17.6030000  44.4570000  28.5840000  19.1030000  44.2970000
  28.8320000  18.4100000  44.7670000  30.4840000  17.6650000  37.9920000
  30.6420000  18.5040000  37.5590000  30.7460000  17.8120000  38.9010000
  30.5380000  17.7910000  38.0530000  32.5940000  16.4420000  48.1020000
  32.0500000  17.0420000  47.5920000  32.2030000  15.5810000  47.9570000
  32.4750000  16.4090000  48.0180000  26.6860000  18.8100000  47.0760000
  26.6520000  18.1230000  47.7400000  27.1620000  18.4150000  46.3450000
  26.7420000  18.6720000  47.0680000  28.5650000   9.5380000  39.7630000
  29.2950000  10.1580000  39.7530000  27.7830000  10.0890000  39.7320000
  28.5580000   9.6880000  39.7570000  28.1970000   6.9190000  48.8800000
  27.7480000   6.1650000  49.2620000  28.9190000   6.5390000  48.3800000
  28.2320000   6.7740000  48.8640000  25.2200000   3.6560000  42.8630000
  25.0720000   4.5990000  42.7840000  24.4280000   3.3240000  43.2870000
  25.1000000   3.7340000  42.9070000  29.0880000  18.2660000  48.8400000
  29.8780000  18.8040000  48.7870000  28.4880000  18.6580000  48.2070000
  29.1120000  18.3850000  48.7530000  24.4760000   4.1450000  39.4570000
  23.5590000   3.9300000  39.6230000  24.9510000   3.7570000  40.1920000
  24.4190000   4.0680000  39.5720000  32.0780000  16.8960000  43.6930000
  31.7100000  17.4770000  44.3570000  32.9690000  17.2190000  43.5580000
  32.1450000  17.0120000  43.7600000  30.1830000   9.3330000  48.6780000
  29.9150000   9.9760000  49.3350000  29.3840000   9.1510000  48.1820000
  30.0460000   9.3920000  48.6980000  20.0810000   5.8720000  43.3400000
  20.4810000   6.4570000  43.9850000  19.6170000   6.4570000  42.7420000
  20.0730000   6.0220000  43.3470000  22.0410000   0.5510000  39.3850000
  22.0420000   1.2930000  39.9890000  22.5450000   0.8550000  38.6320000
  22.1060000   0.6850000  39.3670000  22.9570000  12.5870000  39.6690000
  23.0430000  12.5360000  38.7170000  22.4040000  13.3550000  39.8180000
  22.8970000  12.6790000  39.5670000  20.4710000   7.8080000  48.5280000
  19.6920000   8.3140000  48.7600000  20.2090000   6.8950000  48.6520000
  20.3380000   7.7560000  48.5730000  23.5670000  11.9650000  45.6350000
  23.4800000  12.7450000  46.1830000  23.6390000  11.2410000  46.2570000
  23.5650000  11.9720000  45.7840000  19.1980000   3.0490000  40.8390000
  19.1410000   2.7950000  39.9180000  18.6500000   3.8310000  40.9070000
  19.1200000   3.1170000  40.7300000  24.7510000   0.6220000  44.2700000
  24.3460000   0.2910000  45.0730000  24.8580000  -0.1520000  43.7180000
  24.7130000   0.4810000  44.3030000  35.8360000  16.0810000  44.0100000
  35.9060000  15.4520000  44.7270000  35.9020000  15.5490000  43.2180000
  35.8530000  15.9330000  44.0000000  25.2940000   6.6680000  42.1570000
  25.6670000   6.6030000  41.2780000  24.3890000   6.3720000  42.0550000
  25.2260000   6.6210000  42.0320000  24.9930000  13.8250000  40.5910000
  24.2610000  13.3360000  40.2140000  25.6530000  13.8380000  39.8980000
  24.9830000  13.7640000  40.4550000  27.4390000   3.5650000  44.5410000
  26.5870000   3.4270000  44.1300000  27.4890000   4.5120000  44.6780000
  27.3370000   3.6690000  44.5070000  28.4840000   7.2360000  37.7800000
  28.4650000   7.8860000  38.4820000  28.8390000   6.4480000  38.1920000
  28.5270000   7.2190000  37.9220000  30.4460000  16.1150000  41.6500000
  29.7610000  16.0430000  42.3150000  31.2440000  16.2930000  42.1470000
  30.4600000  16.1280000  41.8000000  28.1570000   1.7390000  42.6320000
  27.9320000   2.5240000  43.1320000  29.0560000   1.8910000  42.3400000
  28.2440000   1.8590000  42.6590000  33.5840000   1.4590000  47.5030000
  34.4550000   1.0660000  47.5590000  33.4850000   1.6900000  46.5800000
  33.6830000   1.4380000  47.3920000  33.6090000   5.3240000  42.7500000
  33.3880000   5.0740000  43.6480000  34.4250000   4.8580000  42.5680000
  33.6850000   5.2320000  42.8430000  31.4550000  15.0870000  37.8970000
  31.0550000  15.9550000  37.9470000  30.9790000  14.5660000  38.5440000
  31.3430000  15.1320000  37.9860000  27.4120000   3.8740000  47.9180000
  26.5610000   3.4430000  47.8300000  27.5110000   4.0210000  48.8580000
  27.3150000   3.8380000  48.0270000  24.8340000  13.4080000  43.7530000
  24.1980000  12.9530000  44.3050000  24.3460000  14.1420000  43.3800000
  24.6910000  13.4440000  43.7770000  21.3870000   4.0290000  47.5320000
  21.2930000   3.5620000  46.7020000  22.2100000   3.7060000  47.8970000
  21.4800000   3.9280000  47.4730000  35.0920000  12.5400000  42.8550000
  35.1140000  12.6560000  43.8050000  35.2650000  13.4130000  42.5030000
  35.1170000  12.6670000  42.9320000  34.4670000  18.4800000  43.1620000
  34.2030000  18.4450000  42.2430000  35.0890000  17.7590000  43.2600000
  34.5130000  18.3830000  43.0570000  31.6410000  18.4760000  40.6720000
  31.1250000  17.7910000  41.0980000  31.1580000  19.2830000  40.8460000
  31.5130000  18.4910000  40.7500000  31.3780000  20.0190000  48.9730000
  32.1530000  19.8630000  48.4340000  31.3470000  20.9700000  49.0800000
  31.4730000  20.1210000  48.9180000  27.9480000  16.4310000  43.2020000
  27.7100000  15.6180000  43.6470000  27.1430000  16.7090000  42.7650000
  27.8150000  16.3630000  43.2030000  20.7450000   9.7860000  42.8170000
  21.7010000   9.8180000  42.8430000  20.4740000  10.7030000  42.8550000
  20.8330000   9.9070000  42.8250000  22.1040000   3.0760000  40.7870000
  22.4120000   3.1410000  41.6920000  21.1860000   2.8180000  40.8670000
  22.0260000   3.0510000  40.9130000  31.4130000   7.3370000  43.1720000
  32.0330000   7.7810000  42.5930000  30.6030000   7.8410000  43.0870000
  31.3890000   7.4590000  43.0870000  18.0330000  13.3890000  39.1320000
  18.6610000  12.8660000  39.6320000  18.5270000  13.6950000  38.3710000
  18.1770000  13.3610000  39.1000000  23.7050000  15.4730000  42.4030000
  23.0050000  15.8710000  41.8860000  24.1370000  14.8700000  41.7970000
  23.6710000  15.4470000  42.2600000  27.1240000   9.8000000  44.5440000
  27.6380000   9.2000000  44.0050000  26.8500000  10.4900000  43.9400000
  27.1540000   9.8110000  44.3980000  19.6110000  17.1550000  38.5910000
  20.1680000  16.3960000  38.7620000  20.1790000  17.9090000  38.7460000
  19.7550000  17.1540000  38.6320000  24.9000000   3.1840000  46.4550000
  24.7220000   3.7740000  45.7230000  25.3850000   2.4570000  46.0650000
  24.9390000   3.1670000  46.3120000  18.5050000   9.7740000  45.0320000
  19.1020000  10.0300000  44.3280000  18.8080000  10.2690000  45.7940000
  18.6200000   9.8700000  45.0400000  21.1860000  13.2810000  48.8370000
  21.4450000  13.9740000  48.2300000  20.3140000  13.5400000  49.1370000
  21.1080000  13.4030000  48.7970000  34.8740000  10.8710000  45.8180000
  35.7270000  10.5300000  45.5480000  34.8960000  10.8420000  46.7750000
  34.9860000  10.8230000  45.9050000  33.0200000  11.5420000  41.0330000
  33.4160000  11.8830000  41.8350000  33.5110000  11.9610000  40.3270000
  33.1330000  11.6390000  41.0460000  25.3260000   2.5690000  32.4540000
  25.5540000   2.5410000  33.3830000  24.6970000   1.8570000  32.3410000
  25.2750000   2.4740000  32.5590000  22.7250000  16.7550000  32.7140000
  21.7710000  16.6870000  32.6820000  22.9140000  17.0620000  33.6000000
  22.6260000  16.7860000  32.8230000  27.4900000  14.1990000  25.8770000
  27.3160000  14.3600000  26.8050000  26.7250000  13.7130000  25.5710000
  27.3700000  14.1570000  25.9570000  23.2420000   0.8550000  31.9600000
  22.6820000   1.3030000  32.5940000  23.0960000  -0.0760000  32.1270000
  23.1520000   0.7930000  32.0620000  24.0610000   9.0960000  21.2080000
  23.9070000   9.5530000  22.0350000  24.7730000   8.4860000  21.4000000
  24.1320000   9.0760000  21.3380000  27.4560000   4.3050000  31.8130000
  26.8530000   3.6640000  32.1880000  28.2450000   4.2360000  32.3510000
  27.4800000   4.2150000  31.9300000  27.9940000   0.7420000  38.0910000
  28.8860000   0.5130000  37.8270000  27.4720000   0.6210000  37.2980000
  28.0420000   0.6980000  37.9570000  34.2220000  15.2550000  19.3940000
  33.3600000  15.5830000  19.1380000  34.1260000  14.3030000  19.3930000
  34.0990000  15.1750000  19.3610000  20.9480000  15.3520000  26.1710000
  20.9860000  16.2450000  25.8270000  20.1490000  15.3310000  26.6970000
  20.8510000  15.4640000  26.1940000  25.6590000  17.1420000  22.8600000
  24.8600000  16.6150000  22.8700000  26.0030000  17.0390000  21.9730000
  25.6010000  17.0610000  22.7480000  29.8790000   4.1310000  33.0820000
  30.0570000   3.2490000  33.4070000  30.1980000   4.7110000  33.7730000
  29.9430000   4.0920000  33.2120000  29.5670000  12.1270000  25.3270000
  29.1410000  11.5200000  24.7230000  28.9040000  12.7940000  25.5050000
  29.4280000  12.1350000  25.2730000  27.5340000   3.1780000  20.5690000
  27.2680000   2.7150000  21.3640000  27.5500000   2.5010000  19.8930000
  27.5020000   3.0320000  20.5850000  27.7690000  10.3660000  33.8530000
  27.6410000   9.5010000  34.2420000  28.2120000  10.1910000  33.0220000
  27.8090000  10.2330000  33.7960000  30.6450000  11.3180000  20.8720000
  31.4150000  11.3390000  21.4390000  30.9640000  10.9510000  20.0480000
  30.7840000  11.2740000  20.8390000  18.8930000   4.6960000  32.4100000
  19.1700000   5.2650000  33.1280000  18.2910000   4.0730000  32.8170000
  18.8520000   4.6890000  32.5540000  34.3630000  12.5550000  19.6190000
  34.4050000  12.4210000  18.6720000  35.2490000  12.8220000  19.8620000
  34.4820000  12.5720000  19.5290000  19.7660000  11.0330000  35.0030000
  18.8450000  10.8130000  34.8630000  19.8460000  11.1400000  35.9500000
  19.6580000  11.0180000  35.1060000  34.7060000   2.9850000  21.7070000
  34.8380000   2.8410000  22.6440000  33.8380000   3.3840000  21.6470000
  34.6120000   3.0170000  21.8200000  31.3560000  14.7220000  26.2080000
  31.5320000  15.5720000  25.8050000  30.5970000  14.3850000  25.7340000
  31.2820000  14.7880000  26.0960000  31.1460000  18.0470000  27.4600000
  31.7320000  18.7840000  27.2850000  30.3640000  18.2330000  26.9410000
  31.1210000  18.1650000  27.3710000  23.4680000   5.3020000  25.9800000
  23.0610000   5.3010000  25.1130000  22.9820000   5.9650000  26.4710000
  23.3540000   5.3870000  25.9320000  21.5870000   1.6980000  33.9980000
  21.7940000   2.5960000  34.2550000  21.2310000   1.2970000  34.7910000
  21.5680000   1.7610000  34.1320000  22.8950000   2.4890000  24.6980000
  22.1370000   2.4760000  25.2830000  23.4270000   1.7450000  24.9790000
  22.8660000   2.3920000  24.8090000  29.9350000   6.1870000  34.9970000
  30.5210000   6.5000000  35.6860000  29.2090000   6.8120000  34.9970000
  29.9170000   6.3070000  35.0850000  27.5550000   6.6880000  24.5290000
  26.7300000   6.6700000  24.0440000  27.3040000   6.5020000  25.4340000
  27.4170000   6.6620000  24.5830000  24.6690000  16.3530000  29.1460000
  24.4080000  15.9780000  29.9870000  25.4000000  15.8080000  28.8570000
  24.7290000  16.2350000  29.2160000  22.9070000  14.5460000  27.8610000
  22.1830000  14.8490000  27.3130000  23.5010000  15.2960000  27.9090000
  22.8910000  14.6810000  27.7970000  19.4560000   4.7000000  38.0510000
  19.2580000   4.7810000  37.1190000  18.6620000   5.0030000  38.4920000
  19.3290000   4.7490000  37.9880000  22.3800000   8.3100000  19.1990000
  21.7770000   9.0470000  19.1030000  23.0090000   8.6000000  19.8600000
  22.3830000   8.4410000  19.2710000  26.8070000  16.7720000  20.4920000
  27.2660000  15.9500000  20.6640000  27.5050000  17.4120000  20.3530000
  26.9550000  16.7490000  20.4960000  25.5300000   7.2630000  29.4740000
  26.4110000   7.5550000  29.7060000  25.6160000   6.9290000  28.5810000
  25.6540000   7.2580000  29.3890000  19.4240000  13.7260000  36.8080000
  18.6620000  14.2940000  36.6910000  19.6290000  13.4160000  35.9260000
  19.3520000  13.7590000  36.6800000  21.4950000  15.0210000  38.1450000
  21.9780000  15.5820000  37.5380000  21.0520000  14.3850000  37.5840000
  21.5000000  15.0120000  37.9960000  25.1210000  16.7570000  36.9430000
  25.6950000  16.6700000  37.7040000  25.0790000  17.6990000  36.7820000
  25.1890000  16.8660000  37.0190000  29.8270000   3.0820000  27.6580000
  28.8750000   3.0190000  27.7290000  30.1550000   2.3540000  28.1860000
  29.7470000   2.9810000  27.7350000  34.9560000  11.0900000  29.7800000
  35.3960000  11.5970000  30.4630000  34.2840000  10.5930000  30.2460000
  34.9270000  11.0910000  29.9270000  25.4760000  10.6110000  36.8440000
  25.3190000   9.6670000  36.8080000  25.3870000  10.9030000  35.9370000
  25.4440000  10.5270000  36.7230000  29.6830000  13.9190000  20.9460000
  29.9870000  13.0260000  21.1020000  30.2100000  14.4590000  21.5350000
  29.7890000  13.8740000  21.0410000  32.3060000   4.4070000  21.5220000
  32.4100000   4.7510000  22.4090000  32.1760000   5.1830000  20.9770000
  32.3030000   4.5500000  21.5660000  34.9480000   5.2550000  28.8490000
  35.8600000   5.2660000  29.1420000  34.9480000   4.6700000  28.0910000
  35.0650000   5.1810000  28.7900000  32.7930000   9.5920000  30.7000000
  31.9180000   9.3350000  30.4100000  33.1450000   8.8090000  31.1240000
  32.7260000   9.4590000  30.7170000  22.5010000  16.5080000  35.8580000
  22.2500000  17.4120000  36.0490000  23.4070000  16.4430000  36.1610000
  22.5860000  16.6160000  35.9210000  24.5350000   1.5810000  19.5090000
  24.8770000   1.5900000  20.4030000  24.0500000   2.4030000  19.4310000
  24.5170000   1.6880000  19.6130000  19.7040000   1.4970000  29.4130000
  20.5380000   1.9510000  29.2890000  19.1160000   1.8960000  28.7730000
  19.7360000   1.6060000  29.3160000  20.8030000   0.6300000  36.4250000
  19.9700000   0.2030000  36.6260000  20.7700000   1.4570000  36.9050000
  20.6920000   0.6810000  36.5120000  27.1380000   6.0920000  27.1630000
  27.2240000   5.3080000  27.7060000  27.5780000   6.7790000  27.6630000
  27.2050000   6.0800000  27.2960000  34.2340000   0.2310000  21.3770000
  34.3620000   1.1460000  21.1250000  33.2850000   0.1360000  21.4620000
  34.1290000   0.3360000  21.3560000  20.2130000  18.3140000  23.6820000
  19.4320000  18.1830000  23.1440000  20.1830000  19.2390000  23.9260000
  20.1090000  18.4160000  23.6440000  30.2640000  14.1160000  35.6330000
  30.8460000  13.9520000  36.3740000  29.6700000  14.8020000  35.9410000
  30.2620000  14.1830000  35.7670000  26.5660000  14.5800000  28.3720000
  26.0860000  13.7720000  28.5490000  27.2950000  14.5660000  28.9910000
  26.5980000  14.4750000  28.4740000  29.3710000   5.4330000  20.6390000
  28.7450000   4.7090000  20.6630000  29.5890000   5.5920000  21.5570000
  29.3190000   5.3610000  20.7590000  26.1090000   7.0810000  32.7600000
  25.2640000   6.7610000  33.0760000  26.5820000   6.2900000  32.5000000
  26.0610000   6.9390000  32.7670000  23.0360000  12.2670000  37.0930000
  23.8470000  11.7790000  36.9510000  22.7670000  12.5440000  36.2170000
  23.1050000  12.2400000  36.9620000  21.9440000  16.8390000  22.2160000
  21.3620000  17.3370000  22.7890000  22.1730000  17.4500000  21.5160000
  21.8990000  16.9810000  22.2000000  25.2980000  11.3070000  34.1210000
  26.1780000  10.9340000  34.0690000  24.7600000  10.7260000  33.5840000
  25.3420000  11.1850000  34.0460000  34.2870000  15.0180000  32.4780000
  33.9360000  14.9150000  33.3630000  34.4350000  15.9600000  32.3880000
  34.2610000  15.1250000  32.5800000  33.6680000   4.1150000  26.2280000
  34.3640000   3.7290000  25.6950000  33.0580000   3.3930000  26.3830000
  33.6780000   3.9730000  26.1790000  31.7420000   9.5640000  33.7700000
  31.1850000   9.1700000  33.0980000  31.1660000  10.1740000  34.2300000
  31.5970000   9.5920000  33.7430000  35.6560000   8.8250000  36.9640000
  34.8330000   9.1650000  36.6150000  35.5120000   8.7690000  37.9090000
  35.5330000   8.8610000  37.0410000  29.5690000   5.5510000  23.3030000
  28.7460000   5.8340000  23.6990000  30.2470000   5.9370000  23.8580000
  29.5510000   5.6360000  23.4250000  22.5810000   9.1420000  31.3960000
  22.2040000   9.0150000  32.2660000  22.0180000   8.6310000  30.8140000
  22.4610000   9.0610000  31.4330000  31.5880000  10.6520000  26.8510000
  32.1330000  11.1530000  27.4580000  30.8940000  11.2590000  26.5940000
  31.5690000  10.7930000  26.8960000  19.5710000  12.2180000  27.6720000
  19.9650000  12.1480000  26.8020000  20.1830000  11.7630000  28.2490000
  19.7000000  12.1510000  27.6340000  34.2920000   7.8980000  23.0440000
  34.2490000   8.5170000  23.7740000  33.9260000   7.0870000  23.3960000
  34.2400000   7.8740000  23.1830000  29.0420000   8.7620000  23.5230000
  28.3700000   8.0810000  23.5530000  29.1210000   8.9790000  22.5940000
  28.9660000   8.7030000  23.4080000  22.7290000   3.6150000  37.4860000
  22.5760000   3.8950000  36.5840000  22.4920000   4.3750000  38.0170000
  22.6790000   3.7480000  37.4390000  30.2280000  17.7410000  32.6410000
  29.6790000  17.6720000  31.8610000  30.5920000  16.8640000  32.7570000
  30.2050000  17.6200000  32.5560000  24.6620000   7.7360000  36.5920000
  24.5470000   7.4520000  35.6850000  23.7710000   7.8390000  36.9250000
  24.5330000   7.7130000  36.5180000  23.7070000   6.0630000  31.4380000
  23.1170000   5.3240000  31.2860000  24.3190000   6.0350000  30.7030000
  23.7100000   5.9650000  31.3240000  25.0920000  12.2550000  29.4700000
  25.0520000  11.3000000  29.4330000  24.6370000  12.4830000  30.2800000
  25.0290000  12.1620000  29.5690000  33.0570000   8.9080000  36.1520000
  32.3660000   8.2680000  36.3200000  32.8490000   9.2640000  35.2890000
  32.9420000   8.8710000  36.0630000  21.0080000  12.4550000  25.4910000
  21.6870000  12.1750000  26.1050000  21.1060000  13.4050000  25.4420000
  21.1070000  12.5410000  25.5640000  26.4220000  11.1910000  20.5780000
  26.0390000  10.8820000  19.7570000  26.6610000  12.1020000  20.4030000
  26.4040000  11.2680000  20.4510000  20.6780000   2.6460000  26.2560000
  20.4400000   1.8270000  25.8220000  19.9170000   3.2140000  26.1300000
  20.5500000   2.6140000  26.1840000  25.2490000   1.4610000  22.2600000
  25.4940000   0.5860000  22.5610000  25.0340000   1.9380000  23.0610000
  25.2530000   1.4100000  22.4010000  30.4810000   3.2100000  24.7980000
  30.1870000   3.9250000  24.2340000  30.2100000   3.4710000  25.6780000
  30.4090000   3.3350000  24.8380000  28.9350000  14.8660000  29.8800000
  28.8710000  14.3460000  30.6820000  29.4800000  15.6150000  30.1230000
  28.9960000  14.8950000  30.0140000  34.4340000  13.7620000  26.4990000
  33.5190000  13.7720000  26.2160000  34.5560000  12.8940000  26.8840000
  34.3320000  13.6520000  26.5120000  22.0870000   5.7260000  20.2940000
  21.1620000   5.4830000  20.3320000  22.0830000   6.6460000  20.0290000
  21.9690000   5.8130000  20.2650000  24.0560000  10.0790000  23.5830000
  24.8790000  10.5650000  23.5450000  24.1070000   9.5840000  24.4000000
  24.1680000  10.0780000  23.6820000  20.7470000  17.9540000  27.6590000
  20.2050000  18.3770000  28.3260000  21.6460000  18.1510000  27.9210000
  20.7920000  18.0340000  27.7780000  26.3510000  11.7160000  23.5850000
  25.8280000  12.4190000  23.9710000  26.3630000  11.9120000  22.6490000
  26.2860000  11.8310000  23.5150000  33.3940000   6.5830000  19.7490000
  33.8720000   6.2300000  19.0000000  33.8960000   7.3550000  20.0120000
  33.5190000   6.6370000  19.6870000  22.2880000  12.0190000  34.5790000
  22.2500000  12.3360000  33.6780000  21.4160000  11.6600000  34.7440000
  22.1710000  12.0130000  34.4860000  26.1960000  13.7590000  33.1540000
  25.4130000  14.1650000  32.7850000  25.9080000  12.8880000  33.4280000
  26.0590000  13.6990000  33.1420000  19.9340000  15.7710000  29.8970000
  20.5890000  16.1320000  29.3000000  19.2560000  15.4160000  29.3220000
  19.9310000  15.7720000  29.7470000  35.2460000  -2.3370000  29.1480000
  35.3920000  -1.9320000  30.0030000  34.3010000  -2.2690000  29.0090000
  35.1440000  -2.2770000  29.2400000  25.2220000   9.7160000  31.6330000
  25.5470000   8.9130000  32.0400000  24.3530000   9.4840000  31.3070000
  25.1520000   9.5840000  31.6430000  20.8380000  10.6500000  37.6020000
  21.6410000  11.1600000  37.4920000  20.3880000  11.0680000  38.3370000
  20.8830000  10.7690000  37.6820000  31.3340000   7.7980000  26.8620000
  31.8320000   7.5910000  26.0710000  31.5180000   8.7230000  27.0260000
  31.4210000   7.8900000  26.7820000  25.9590000   6.5440000  20.6030000
  25.4780000   5.7270000  20.4720000  26.3930000   6.7030000  19.7650000
  25.9530000   6.4600000  20.4790000  19.9230000  11.5810000  21.0610000
  20.6900000  11.2580000  21.5360000  19.1810000  11.3420000  21.6160000
  19.9260000  11.5090000  21.1930000  19.2610000   5.3370000  29.7570000
  20.0590000   4.9870000  29.3620000  19.2410000   4.9570000  30.6350000
  19.3600000   5.2430000  29.8190000  28.6550000   8.3940000  27.4850000
  28.2480000   9.1540000  27.0690000  29.5170000   8.3290000  27.0750000
  28.7130000   8.4830000  27.3800000  33.1920000   9.6330000  24.9670000
  33.8660000  10.0450000  25.5070000  32.3820000  10.0790000  25.2130000
  33.1750000   9.7430000  25.0670000  21.3460000  10.1240000  28.4700000
  22.3030000  10.1080000  28.4510000  21.1010000   9.3100000  28.9100000
  21.4370000  10.0180000  28.5240000  31.6490000   4.1340000  31.0090000
  31.1950000   4.5760000  30.2910000  31.1070000   4.3090000  31.7780000
  31.5220000   4.2130000  31.0150000  30.1880000   5.6100000  28.8190000
  30.8140000   6.0600000  28.2520000  30.0460000   4.7630000  28.3950000
  30.2500000   5.5590000  28.6920000  28.7230000  13.4870000  32.3180000
  29.1160000  14.3080000  32.6140000  27.8100000  13.5420000  32.6000000
  28.6570000  13.5990000  32.3920000  30.2120000   2.3550000  21.5750000
  29.4530000   2.6030000  21.0470000  30.7670000   3.1350000  21.5760000
  30.1860000   2.4870000  21.5080000  22.7470000   5.6480000  23.2920000
  22.6570000   5.3770000  22.3790000  21.8490000   5.8050000  23.5850000
  22.6200000   5.6340000  23.2130000  32.3340000   1.5390000  26.0880000
  31.6720000   1.9450000  25.5280000  33.0290000   1.2760000  25.4850000
  32.3380000   1.5580000  25.9390000  33.9470000   6.7710000  31.4670000
  33.6820000   6.1190000  32.1170000  34.1660000   6.2580000  30.6890000
  33.9410000   6.6220000  31.4510000  24.6930000   8.5640000  25.6920000
  24.8810000   7.8120000  25.1300000  25.5490000   8.9550000  25.8620000
  24.8260000   8.5180000  25.6420000  26.3490000   3.4240000  34.9320000
  27.2710000   3.5000000  35.1760000  25.8970000   4.0410000  35.5070000
  26.4090000   3.5120000  35.0360000  23.3400000   0.4340000  27.8510000
  23.5110000   1.3550000  28.0500000  23.9060000  -0.0500000  28.4520000
  23.4340000   0.4900000  27.9530000  27.1430000  13.7710000  19.9750000
  27.9870000  13.7330000  20.4260000  27.3660000  13.9760000  19.0670000
  27.2800000  13.7920000  19.9170000  24.1940000   9.5610000  28.2440000
  24.4510000   9.1430000  27.4220000  24.2780000   8.8690000  28.9000000
  24.2380000   9.4190000  28.2230000  31.5060000  14.0160000  28.7030000
  31.6040000  14.2630000  27.7830000  30.6520000  14.3660000  28.9550000
  31.4090000  14.0920000  28.6180000  28.8960000  18.4300000  26.0420000
  28.7110000  17.6030000  25.5960000  28.5840000  19.1030000  25.4370000
  28.8320000  18.4100000  25.9070000  35.0000000   0.3000000  37.6670000
  34.4590000  -0.2150000  38.2660000  34.5360000   1.1330000  37.5800000
  34.8720000   0.3410000  37.7330000  30.4840000  17.6650000  19.1320000
  30.6420000  18.5040000  18.6990000  30.7460000  17.8120000  20.0410000
  30.5380000  17.7910000  19.1930000  32.5940000  16.4420000  29.2420000
  32.0500000  17.0420000  28.7310000  32.2030000  15.5810000  29.0960000
  32.4750000  16.4090000  29.1580000  26.6860000  18.8100000  28.2150000
  26.6520000  18.1230000  28.8800000  27.1620000  18.4150000  27.4850000
  26.7420000  18.6720000  28.2070000  28.5650000   9.5380000  20.9030000
  29.2950000  10.1580000  20.8920000  27.7830000  10.0890000  20.8720000
  28.5580000   9.6880000  20.8970000  28.1970000   6.9190000  30.0190000
  27.7480000   6.1650000  30.4010000  28.9190000   6.5390000  29.5190000
  28.2320000   6.7740000  30.0050000  29.7320000  11.0430000  31.7310000
  29.4560000  11.8670000  32.1330000  30.6830000  11.0300000  31.8400000
  29.8190000  11.1470000  31.7960000  25.2200000   3.6560000  24.0020000
  25.0720000   4.5990000  23.9240000  24.4280000   3.3240000  24.4260000
  25.1000000   3.7340000  24.0460000  29.0880000  18.2660000  29.9800000
  29.8780000  18.8040000  29.9260000  28.4880000  18.6580000  29.3460000
  29.1120000  18.3850000  29.8920000  28.8710000   4.0000000  36.4210000
  28.4050000   4.5980000  37.0050000  29.4660000   4.5640000  35.9260000
  28.8870000   4.1480000  36.4320000  24.4760000   4.1450000  20.5970000
  23.5590000   3.9300000  20.7630000  24.9510000   3.7570000  21.3320000
  24.4190000   4.0680000  20.7120000  21.1180000   8.8910000  33.8680000
  20.4390000   9.5300000  34.0880000  20.7090000   8.0420000  34.0320000
  20.9780000   8.8640000  33.9170000  32.0780000  16.8960000  24.8320000
  31.7100000  17.4770000  25.4970000  32.9690000  17.2190000  24.6980000
  32.1450000  17.0120000  24.9000000  19.2660000   1.8000000  32.4500000
  20.1280000   1.7610000  32.8640000  19.4520000   1.9500000  31.5230000
  19.4000000   1.8140000  32.3840000  30.1830000   9.3330000  29.8170000
  29.9150000   9.9760000  30.4740000  29.3840000   9.1510000  29.3210000
  30.0460000   9.3920000  29.8370000  18.7250000   6.9710000  36.4370000
  18.1250000   7.7040000  36.5780000  19.2720000   6.9540000  37.2230000
  18.7180000   7.0630000  36.5570000  20.0810000   5.8720000  24.4800000
  20.4810000   6.4570000  25.1240000  19.6170000   6.4570000  23.8810000
  20.0730000   6.0220000  24.4860000  30.1600000   7.6670000  32.3800000
  29.9970000   7.9760000  31.4880000  29.2990000   7.4030000  32.7020000
  30.0290000   7.6730000  32.3070000  30.3820000   1.8880000  36.5170000
  30.3790000   1.5980000  35.6050000  29.7100000   2.5690000  36.5540000
  30.2950000   1.9380000  36.4050000  22.0410000   0.5510000  20.5250000
  22.0420000   1.2930000  21.1290000  22.5450000   0.8550000  19.7710000
  22.1060000   0.6850000  20.5060000  22.9570000  12.5870000  20.8090000
  23.0430000  12.5360000  19.8570000  22.4040000  13.3550000  20.9580000
  22.8970000  12.6790000  20.7060000  30.0920000  11.3300000  34.9160000
  29.2740000  11.1740000  34.4440000  30.1400000  12.2820000  35.0050000
  29.9940000  11.4320000  34.8670000  34.4420000   6.0260000  36.1460000
  35.1550000   5.3940000  36.2420000  34.8820000   6.8630000  36.0000000
  34.5890000   6.0520000  36.1390000  20.4710000   7.8080000  29.6680000
  19.6920000   8.3140000  29.8990000  20.2090000   6.8950000  29.7910000
  20.3380000   7.7560000  29.7130000  23.5670000  11.9650000  26.7740000
  23.4800000  12.7450000  27.3230000  23.6390000  11.2410000  27.3970000
  23.5650000  11.9720000  26.9240000  23.6690000   7.1060000  33.9580000
  23.5780000   6.9860000  33.0130000  22.9450000   7.6840000  34.1960000
  23.5650000   7.1650000  33.8670000  24.7510000   0.6220000  25.4100000
  24.3460000   0.2910000  26.2120000  24.8580000  -0.1520000  24.8580000
  24.7130000   0.4810000  25.4420000  35.8360000  16.0810000  25.1500000
  35.9060000  15.4520000  25.8670000  35.9020000  15.5490000  24.3570000
  35.8530000  15.9330000  25.1400000  25.2940000   6.6680000  23.2960000
  25.6670000   6.6030000  22.4170000  24.3890000   6.3720000  23.1950000
  25.2260000   6.6210000  23.1710000  24.9930000  13.8250000  21.7300000
  24.2610000  13.3360000  21.3540000  25.6530000  13.8380000  21.0380000
  24.9830000  13.7640000  21.5940000  27.4390000   3.5650000  25.6810000
  26.5870000   3.4270000  25.2690000  27.4890000   4.5120000  25.8170000
  27.3370000   3.6690000  25.6460000  19.9390000  17.1700000  32.3010000
  19.6460000  16.8970000  31.4310000  19.6310000  18.0720000  32.3850000
  19.8620000  17.2500000  32.2000000  22.3110000   4.2330000  34.8720000
  23.1020000   4.2660000  34.3350000  21.9510000   5.1190000  34.8240000
  22.3660000   4.3500000  34.7970000  28.4840000   7.2360000  18.9200000
  28.4650000   7.8860000  19.6220000  28.8390000   6.4480000  19.3320000
  28.5270000   7.2190000  19.0620000  33.4670000   2.4860000  36.3410000
  33.5280000   2.1390000  35.4510000  32.5260000   2.5340000  36.5160000
  33.3540000   2.4480000  36.2490000  23.8540000  14.5340000  31.6990000
  23.2840000  15.2210000  32.0460000  23.4020000  13.7180000  31.9130000
  23.7230000  14.5180000  31.7710000  30.4460000  16.1150000  22.7900000
  29.7610000  16.0430000  23.4550000  31.2440000  16.2930000  23.2870000
  30.4600000  16.1280000  22.9390000  28.1570000   1.7390000  23.7720000
  27.9320000   2.5240000  24.2710000  29.0560000   1.8910000  23.4800000
  28.2440000   1.8590000  23.7990000  33.5840000   1.4590000  28.6420000
  34.4550000   1.0660000  28.6990000  33.4850000   1.6900000  27.7190000
  33.6830000   1.4380000  28.5310000  30.4920000   1.7260000  33.7760000
  30.2320000   0.9500000  33.2790000  31.4480000   1.7310000  33.7280000
  30.5810000   1.6270000  33.7070000  33.6090000   5.3240000  23.8900000
  33.3880000   5.0740000  24.7880000  34.4250000   4.8580000  23.7070000
  33.6850000   5.2320000  23.9820000  31.4550000  15.0870000  19.0370000
  31.0550000  15.9550000  19.0870000  30.9790000  14.5660000  19.6840000
  31.3430000  15.1320000  19.1260000  27.4120000   3.8740000  29.0570000
  26.5610000   3.4430000  28.9700000  27.5110000   4.0210000  29.9980000
  27.3150000   3.8380000  29.1660000  26.0430000   0.8950000  36.2080000
  25.4900000   1.2060000  36.9240000  26.1040000   1.6410000  35.6110000
  25.9800000   1.0300000  36.2230000  24.8340000  13.4080000  24.8930000
  24.1980000  12.9530000  25.4440000  24.3460000  14.1420000  24.5200000
  24.6910000  13.4440000  24.9160000  30.7120000  15.0790000  33.0980000
  30.5090000  14.7690000  33.9800000  31.2260000  14.3710000  32.7080000
  30.7520000  14.9480000  33.1610000  33.3570000  12.6810000  35.7450000
  32.7170000  12.1480000  36.2170000  33.3190000  12.3580000  34.8440000
  33.2700000  12.5710000  35.6900000  27.1240000  15.0490000  35.8800000
  26.7370000  14.6840000  35.0840000  26.4760000  15.6780000  36.1950000
  26.9910000  15.0820000  35.8190000  19.4840000  14.4030000  33.2490000
  19.1020000  15.2460000  33.4930000  20.3080000  14.6290000  32.8180000
  19.5400000  14.5400000  33.2250000  35.0920000  12.5400000  23.9940000
  35.1140000  12.6560000  24.9440000  35.2650000  13.4130000  23.6430000
  35.1170000  12.6670000  24.0710000  34.4670000  18.4800000  24.3010000
  34.2030000  18.4450000  23.3820000  35.0890000  17.7590000  24.4000000
  34.5130000  18.3830000  24.1960000  31.6410000  18.4760000  21.8120000
  31.1250000  17.7910000  22.2380000  31.1580000  19.2830000  21.9860000
  31.5130000  18.4910000  21.8890000  23.5500000   3.2870000  29.9270000
  24.0020000   2.7080000  30.5410000  24.1130000   3.3020000  29.1540000
  23.6800000   3.2150000  29.9070000  20.1320000   6.3870000  34.1960000
  19.5660000   6.7480000  33.5140000  19.6360000   6.5030000  35.0070000
  19.9960000   6.4480000  34.2120000  31.3780000  20.0190000  30.1130000
  32.1530000  19.8630000  29.5740000  31.3470000  20.9700000  30.2190000
  31.4730000  20.1210000  30.0580000  27.9480000  16.4310000  24.3420000
  27.7100000  15.6180000  24.7860000  27.1430000  16.7090000  23.9050000
  27.8150000  16.3630000  24.3430000  33.1410000  15.8510000  35.6490000
  33.4110000  14.9470000  35.8090000  32.1890000  15.8380000  35.7500000
  33.0530000  15.7340000  35.6830000  33.4510000  11.5570000  33.3460000
  32.8410000  10.8210000  33.4020000  33.0190000  12.1810000  32.7630000
  33.3180000  11.5420000  33.2790000  22.5490000  12.1450000  31.7710000
  22.0880000  12.4890000  31.0060000  22.6300000  11.2070000  31.5990000
  22.5000000  12.0690000  31.6510000  25.5850000   5.2450000  36.8990000
  24.8200000   4.8480000  37.3170000  25.3310000   6.1560000  36.7510000
  25.4540000   5.3110000  36.9340000  22.1040000   3.0760000  21.9270000
  22.4120000   3.1410000  22.8310000  21.1860000   2.8180000  22.0060000
  22.0260000   3.0510000  22.0530000  31.4130000   7.3370000  24.3110000
  32.0330000   7.7810000  23.7320000  30.6030000   7.8410000  24.2260000
  31.3890000   7.4590000  24.2260000  18.0330000  13.3890000  20.2720000
  18.6610000  12.8660000  20.7710000  18.5270000  13.6950000  19.5110000
  18.1770000  13.3610000  20.2390000  23.7050000  15.4730000  23.5430000
  23.0050000  15.8710000  23.0260000  24.1370000  14.8700000  22.9370000
  23.6710000  15.4470000  23.3990000  32.3060000  13.4160000  31.3650000
  32.1330000  13.3390000  30.4270000  33.0890000  13.9630000  31.4200000
  32.3840000  13.4760000  31.2520000  27.1240000   9.8000000  25.6840000
  27.6380000   9.2000000  25.1440000  26.8500000  10.4900000  25.0800000
  27.1540000   9.8110000  25.5380000  34.1520000  18.3670000  34.9750000
  34.5610000  18.5390000  35.8230000  33.8830000  17.4500000  35.0200000
  34.1700000  18.2720000  35.0890000  33.1660000   3.0290000  33.2430000
  32.8790000   3.8550000  33.6350000  32.9430000   3.1130000  32.3160000
  33.1000000   3.1460000  33.1750000  19.6110000  17.1550000  19.7300000
  20.1680000  16.3960000  19.9020000  20.1790000  17.9090000  19.8860000
  19.7550000  17.1540000  19.7720000  31.5600000  11.1410000  37.0370000
  30.7490000  11.1790000  36.5300000  31.9240000  10.2780000  36.8420000
  31.5030000  11.0360000  36.9470000  24.9000000   3.1840000  27.5950000
  24.7220000   3.7740000  26.8630000  25.3850000   2.4570000  27.2050000
  24.9390000   3.1670000  27.4520000  18.5050000   9.7740000  26.1720000
  19.1020000  10.0300000  25.4680000  18.8080000  10.2690000  26.9340000
  18.6200000   9.8700000  26.1790000  21.1860000  13.2810000  29.9770000
  21.4450000  13.9740000  29.3690000  20.3140000  13.5400000  30.2760000
  21.1080000  13.4030000  29.9370000  34.8740000  10.8710000  26.9580000
  35.7270000  10.5300000  26.6880000  34.8960000  10.8420000  27.9140000
  34.9860000  10.8230000  27.0450000  27.8040000   7.7820000  34.8630000
  27.0500000   7.4520000  34.3740000  27.6030000   7.5840000  35.7770000
  27.6820000   7.7140000  34.9170000  31.3540000   7.1050000  36.9320000
  30.5700000   7.0660000  37.4800000  31.9910000   6.5540000  37.3860000
  31.3350000   7.0300000  37.0600000  33.0200000  11.5420000  22.1730000
  33.4160000  11.8830000  22.9750000  33.5110000  11.9610000  21.4660000
  33.1330000  11.6390000  22.1850000  32.7490000   5.6280000  34.1350000
  33.4420000   5.8220000  34.7670000  32.1130000   6.3340000  34.2530000
  32.7560000   5.7430000  34.2310000  33.2140000  17.8980000  31.6100000
  32.7410000  18.7310000  31.6030000  32.6830000  17.3170000  31.0660000
  33.0850000  17.9300000  31.5400000  25.3260000   2.5690000  13.5940000
  25.5540000   2.5410000  14.5230000  24.6970000   1.8570000  13.4810000
  25.2750000   2.4740000  13.6990000  22.7250000  16.7550000  13.8540000
  21.7710000  16.6870000  13.8220000  22.9140000  17.0620000  14.7400000
  22.6260000  16.7860000  13.9630000  27.4900000  14.1990000   7.0170000
  27.3160000  14.3600000   7.9450000  26.7250000  13.7130000   6.7110000
  27.3700000  14.1570000   7.0970000  23.2420000   0.8550000  13.1000000
  22.6820000   1.3030000  13.7340000  23.0960000  -0.0760000  13.2670000
  23.1520000   0.7930000  13.2020000  24.0610000   9.0960000   2.3480000
  23.9070000   9.5530000   3.1750000  24.7730000   8.4860000   2.5400000
  24.1320000   9.0760000   2.4780000  27.4560000   4.3050000  12.9530000
  26.8530000   3.6640000  13.3280000  28.2450000   4.2360000  13.4910000
  27.4800000   4.2150000  13.0700000  27.9940000   0.7420000  19.2310000
  28.8860000   0.5130000  18.9670000  27.4720000   0.6210000  18.4380000
  28.0420000   0.6980000  19.0960000  34.2220000  15.2550000   0.5340000
  33.3600000  15.5830000   0.2780000  34.1260000  14.3030000   0.5330000
  34.0990000  15.1750000   0.5010000  20.9480000  15.3520000   7.3110000
  20.9860000  16.2450000   6.9670000  20.1490000  15.3310000   7.8370000
  20.8510000  15.4640000   7.3340000  25.6590000  17.1420000   4.0000000
  24.8600000  16.6150000   4.0100000  26.0030000  17.0390000   3.1130000
  25.6010000  17.0610000   3.8880000  29.8790000   4.1310000  14.2210000
  30.0570000   3.2490000  14.5470000  30.1980000   4.7110000  14.9130000
  29.9430000   4.0920000  14.3520000  29.5670000  12.1270000   6.4670000
  29.1410000  11.5200000   5.8630000  28.9040000  12.7940000   6.6450000
  29.4280000  12.1350000   6.4130000  27.5340000   3.1780000   1.7090000
  27.2680000   2.7150000   2.5040000  27.5500000   2.5010000   1.0330000
  27.5020000   3.0320000   1.7250000  27.7690000  10.3660000  14.9930000
  27.6410000   9.5010000  15.3820000  28.2120000  10.1910000  14.1620000
  27.8090000  10.2330000  14.9360000  30.6450000  11.3180000   2.0120000
  31.4150000  11.3390000   2.5790000  30.9640000  10.9510000   1.1880000
  30.7840000  11.2740000   1.9790000  34.3630000  12.5550000   0.7590000
  34.4050000  12.4210000  -0.1880000  35.2490000  12.8220000   1.0020000
  34.4820000  12.5720000   0.6690000  19.7660000  11.0330000  16.1430000
  18.8450000  10.8130000  16.0030000  19.8460000  11.1400000  17.0900000
  19.6580000  11.0180000  16.2460000  34.7060000   2.9850000   2.8470000
  34.8380000   2.8410000   3.7840000  33.8380000   3.3840000   2.7870000
  34.6120000   3.0170000   2.9600000  31.3560000  14.7220000   7.3480000
  31.5320000  15.5720000   6.9450000  30.5970000  14.3850000   6.8740000
  31.2820000  14.7880000   7.2360000  31.1460000  18.0470000   8.6000000
  31.7320000  18.7840000   8.4250000  30.3640000  18.2330000   8.0810000
  31.1210000  18.1650000   8.5110000  23.4680000   5.3020000   7.1200000
  23.0610000   5.3010000   6.2530000  22.9820000   5.9650000   7.6110000
  23.3540000   5.3870000   7.0720000  21.5870000   1.6980000  15.1380000
  21.7940000   2.5960000  15.3950000  21.2310000   1.2970000  15.9310000
  21.5680000   1.7610000  15.2720000  22.8950000   2.4890000   5.8380000
  22.1370000   2.4760000   6.4230000  23.4270000   1.7450000   6.1190000
  22.8660000   2.3920000   5.9490000  29.9350000   6.1870000  16.1370000
  30.5210000   6.5000000  16.8260000  29.2090000   6.8120000  16.1370000
  29.9170000   6.3070000  16.2250000  27.5550000   6.6880000   5.6690000
  26.7300000   6.6700000   5.1840000  27.3040000   6.5020000   6.5740000
  27.4170000   6.6620000   5.7230000  24.6690000  16.3530000  10.2860000
  24.4080000  15.9780000  11.1270000  25.4000000  15.8080000   9.9970000
  24.7290000  16.2350000  10.3560000  22.9070000  14.5460000   9.0010000
  22.1830000  14.8490000   8.4530000  23.5010000  15.2960000   9.0490000
  22.8910000  14.6810000   8.9370000  19.4560000   4.7000000  19.1910000
  19.2580000   4.7810000  18.2600000  18.6620000   5.0030000  19.6320000
  19.3290000   4.7490000  19.1280000  22.3800000   8.3100000   0.3390000
  21.7770000   9.0470000   0.2430000  23.0090000   8.6000000   1.0000000
  22.3830000   8.4410000   0.4110000  26.8070000  16.7720000   1.6320000
  27.2660000  15.9500000   1.8040000  27.5050000  17.4120000   1.4930000
  26.9550000  16.7490000   1.6360000  25.5300000   7.2630000  10.6140000
  26.4110000   7.5550000  10.8460000  25.6160000   6.9290000   9.7210000
  25.6540000   7.2580000  10.5290000  19.4240000  13.7260000  17.9480000
  18.6620000  14.2940000  17.8310000  19.6290000  13.4160000  17.0660000
  19.3520000  13.7590000  17.8200000  21.4950000  15.0210000  19.2850000
  21.9780000  15.5820000  18.6780000  21.0520000  14.3850000  18.7240000
  21.5000000  15.0120000  19.1360000  25.1210000  16.7570000  18.0830000
  25.6950000  16.6700000  18.8440000  25.0790000  17.6990000  17.9210000
  25.1890000  16.8660000  18.1590000  29.8270000   3.0820000   8.7980000
  28.8750000   3.0190000   8.8690000  30.1550000   2.3540000   9.3260000
  29.7470000   2.9810000   8.8750000  34.9560000  11.0900000  10.9200000
  35.3960000  11.5970000  11.6030000  34.2840000  10.5930000  11.3860000
  34.9270000  11.0910000  11.0670000  25.4760000  10.6110000  17.9840000
  25.3190000   9.6670000  17.9480000  25.3870000  10.9030000  17.0770000
  25.4440000  10.5270000  17.8630000  29.6830000  13.9190000   2.0860000
  29.9870000  13.0260000   2.2420000  30.2100000  14.4590000   2.6750000
  29.7890000  13.8740000   2.1810000  32.3060000   4.4070000   2.6620000
  32.4100000   4.7510000   3.5490000  32.1760000   5.1830000   2.1170000
  32.3030000   4.5500000   2.7060000  34.9480000   5.2550000   9.9890000
  35.8600000   5.2660000  10.2820000  34.9480000   4.6700000   9.2310000
  35.0650000   5.1810000   9.9300000  32.7930000   9.5920000  11.8400000
  31.9180000   9.3350000  11.5500000  33.1450000   8.8090000  12.2640000
  32.7260000   9.4590000  11.8570000  22.5010000  16.5080000  16.9980000
  22.2500000  17.4120000  17.1890000  23.4070000  16.4430000  17.3010000
  22.5860000  16.6160000  17.0610000  24.5350000   1.5810000   0.6490000
  24.8770000   1.5900000   1.5430000  24.0500000   2.4030000   0.5710000
  24.5170000   1.6880000   0.7530000  19.7040000   1.4970000  10.5530000
  20.5380000   1.9510000  10.4290000  19.1160000   1.8960000   9.9130000
  19.7360000   1.6060000  10.4560000  20.8030000   0.6300000  17.5650000
  19.9700000   0.2030000  17.7660000  20.7700000   1.4570000  18.0450000
  20.6920000   0.6810000  17.6520000  27.1380000   6.0920000   8.3030000
  27.2240000   5.3080000   8.8460000  27.5780000   6.7790000   8.8030000
  27.2050000   6.0800000   8.4360000  34.2340000   0.2310000   2.5170000
  34.3620000   1.1460000   2.2650000  33.2850000   0.1360000   2.6020000
  34.1290000   0.3360000   2.4960000  20.2130000  18.3140000   4.8220000
  19.4320000  18.1830000   4.2840000  20.1830000  19.2390000   5.0660000
  20.1090000  18.4160000   4.7840000  30.2640000  14.1160000  16.7730000
  30.8460000  13.9520000  17.5140000  29.6700000  14.8020000  17.0810000
  30.2620000  14.1830000  16.9070000  26.5660000  14.5800000   9.5120000
  26.0860000  13.7720000   9.6890000  27.2950000  14.5660000  10.1310000
  26.5980000  14.4750000   9.6140000  29.3710000   5.4330000   1.7790000
  28.7450000   4.7090000   1.8030000  29.5890000   5.5920000   2.6970000
  29.3190000   5.3610000   1.8990000  26.1090000   7.0810000  13.8990000
  25.2640000   6.7610000  14.2160000  26.5820000   6.2900000  13.6400000
  26.0610000   6.9390000  13.9070000  23.0360000  12.2670000  18.2330000
  23.8470000  11.7790000  18.0910000  22.7670000  12.5440000  17.3570000
  23.1050000  12.2400000  18.1020000  21.9440000  16.8390000   3.3560000
  21.3620000  17.3370000   3.9290000  22.1730000  17.4500000   2.6560000
  21.8990000  16.9810000   3.3400000  25.2980000  11.3070000  15.2610000
  26.1780000  10.9340000  15.2090000  24.7600000  10.7260000  14.7240000
  25.3420000  11.1850000  15.1860000  34.2870000  15.0180000  13.6180000
  33.9360000  14.9150000  14.5030000  34.4350000  15.9600000  13.5280000
  34.2610000  15.1250000  13.7200000  33.6680000   4.1150000   7.3680000
  34.3640000   3.7290000   6.8350000  33.0580000   3.3930000   7.5230000
  33.6780000   3.9730000   7.3190000  31.7420000   9.5640000  14.9100000
  31.1850000   9.1700000  14.2380000  31.1660000  10.1740000  15.3700000
  31.5970000   9.5920000  14.8830000  35.6560000   8.8250000  18.1040000
  34.8330000   9.1650000  17.7550000  35.5120000   8.7690000  19.0490000
  35.5330000   8.8610000  18.1800000  29.5690000   5.5510000   4.4430000
  28.7460000   5.8340000   4.8390000  30.2470000   5.9370000   4.9980000
  29.5510000   5.6360000   4.5650000  22.5810000   9.1420000  12.5360000
  22.2040000   9.0150000  13.4060000  22.0180000   8.6310000  11.9540000
  22.4610000   9.0610000  12.5730000  31.5880000  10.6520000   7.9910000
  32.1330000  11.1530000   8.5980000  30.8940000  11.2590000   7.7340000
  31.5690000  10.7930000   8.0360000  19.5710000  12.2180000   8.8120000
  19.9650000  12.1480000   7.9420000  20.1830000  11.7630000   9.3890000
  19.7000000  12.1510000   8.7740000  34.2920000   7.8980000   4.1840000
  34.2490000   8.5170000   4.9140000  33.9260000   7.0870000   4.5360000
  34.2400000   7.8740000   4.3230000  29.0420000   8.7620000   4.6630000
  28.3700000   8.0810000   4.6930000  29.1210000   8.9790000   3.7340000
  28.9660000   8.7030000   4.5480000  22.7290000   3.6150000  18.6260000
  22.5760000   3.8950000  17.7240000  22.4920000   4.3750000  19.1570000
  22.6790000   3.7480000  18.5790000  30.2280000  17.7410000  13.7810000
  29.6790000  17.6720000  13.0010000  30.5920000  16.8640000  13.8970000
  30.2050000  17.6200000  13.6960000  24.6620000   7.7360000  17.7320000
  24.5470000   7.4520000  16.8250000  23.7710000   7.8390000  18.0650000
  24.5330000   7.7130000  17.6590000  23.7070000   6.0630000  12.5780000
  23.1170000   5.3240000  12.4260000  24.3190000   6.0350000  11.8430000
  23.7100000   5.9650000  12.4640000  25.0920000  12.2550000  10.6100000
  25.0520000  11.3000000  10.5730000  24.6370000  12.4830000  11.4200000
  25.0290000  12.1620000  10.7090000  33.0570000   8.9080000  17.2920000
  32.3660000   8.2680000  17.4600000  32.8490000   9.2640000  16.4290000
  32.9420000   8.8710000  17.2030000  18.6750000   8.0100000   4.4290000
  19.3400000   8.6100000   4.7670000  17.8430000   8.4440000   4.6180000
  18.6540000   8.1420000   4.4970000  21.0080000  12.4550000   6.6310000
  21.6870000  12.1750000   7.2450000  21.1060000  13.4050000   6.5820000
  21.1070000  12.5410000   6.7040000  26.4220000  11.1910000   1.7180000
  26.0390000  10.8820000   0.8970000  26.6610000  12.1020000   1.5430000
  26.4040000  11.2680000   1.5910000  20.6780000   2.6460000   7.3960000
  20.4400000   1.8270000   6.9620000  19.9170000   3.2140000   7.2690000
  20.5500000   2.6140000   7.3240000  25.2490000   1.4610000   3.4000000
  25.4940000   0.5860000   3.7010000  25.0340000   1.9380000   4.2010000
  25.2530000   1.4100000   3.5410000  30.4810000   3.2100000   5.9380000
  30.1870000   3.9250000   5.3740000  30.2100000   3.4710000   6.8180000
  30.4090000   3.3350000   5.9780000  28.9350000  14.8660000  11.0200000
  28.8710000  14.3460000  11.8220000  29.4800000  15.6150000  11.2630000
  28.9960000  14.8950000  11.1540000  34.4340000  13.7620000   7.6390000
  33.5190000  13.7720000   7.3560000  34.5560000  12.8940000   8.0240000
  34.3320000  13.6520000   7.6520000  22.0870000   5.7260000   1.4340000
  21.1620000   5.4830000   1.4720000  22.0830000   6.6460000   1.1690000
  21.9690000   5.8130000   1.4050000  24.0560000  10.0790000   4.7230000
  24.8790000  10.5650000   4.6850000  24.1070000   9.5840000   5.5400000
  24.1680000  10.0780000   4.8220000  20.7470000  17.9540000   8.7990000
  20.2050000  18.3770000   9.4660000  21.6460000  18.1510000   9.0610000
  20.7920000  18.0340000   8.9180000  26.3510000  11.7160000   4.7250000
  25.8280000  12.4190000   5.1110000  26.3630000  11.9120000   3.7890000
  26.2860000  11.8310000   4.6550000  33.3940000   6.5830000   0.8890000
  33.8720000   6.2300000   0.1400000  33.8960000   7.3550000   1.1520000
  33.5190000   6.6370000   0.8270000  22.2880000  12.0190000  15.7190000
  22.2500000  12.3360000  14.8170000  21.4160000  11.6600000  15.8840000
  22.1710000  12.0130000  15.6250000  26.1960000  13.7590000  14.2940000
  25.4130000  14.1650000  13.9250000  25.9080000  12.8880000  14.5670000
  26.0590000  13.6990000  14.2820000  19.9340000  15.7710000  11.0370000
  20.5890000  16.1320000  10.4400000  19.2560000  15.4160000  10.4620000
  19.9310000  15.7720000  10.8870000  35.2460000  -2.3370000  10.2880000
  35.3920000  -1.9320000  11.1430000  34.3010000  -2.2690000  10.1490000
  35.1440000  -2.2770000  10.3800000  25.2220000   9.7160000  12.7730000
  25.5470000   8.9130000  13.1800000  24.3530000   9.4840000  12.4470000
  25.1520000   9.5840000  12.7830000  20.8380000  10.6500000  18.7420000
  21.6410000  11.1600000  18.6320000  20.3880000  11.0680000  19.4760000
  20.8830000  10.7690000  18.8220000  31.3340000   7.7980000   8.0020000
  31.8320000   7.5910000   7.2110000  31.5180000   8.7230000   8.1660000
  31.4210000   7.8900000   7.9220000  25.9590000   6.5440000   1.7430000
  25.4780000   5.7270000   1.6120000  26.3930000   6.7030000   0.9050000
  25.9530000   6.4600000   1.6190000  19.9230000  11.5810000   2.2010000
  20.6900000  11.2580000   2.6760000  19.1810000  11.3420000   2.7560000
  19.9260000  11.5090000   2.3330000  28.6550000   8.3940000   8.6250000
  28.2480000   9.1540000   8.2090000  29.5170000   8.3290000   8.2150000
  28.7130000   8.4830000   8.5190000  33.1920000   9.6330000   6.1070000
  33.8660000  10.0450000   6.6470000  32.3820000  10.0790000   6.3530000
  33.1750000   9.7430000   6.2070000  21.3460000  10.1240000   9.6100000
  22.3030000  10.1080000   9.5910000  21.1010000   9.3100000  10.0500000
  21.4370000  10.0180000   9.6640000  31.6490000   4.1340000  12.1490000
  31.1950000   4.5760000  11.4310000  31.1070000   4.3090000  12.9180000
  31.5220000   4.2130000  12.1550000  30.1880000   5.6100000   9.9590000
  30.8140000   6.0600000   9.3920000  30.0460000   4.7630000   9.5350000
  30.2500000   5.5590000   9.8320000  28.7230000  13.4870000  13.4580000
  29.1160000  14.3080000  13.7540000  27.8100000  13.5420000  13.7400000
  28.6570000  13.5990000  13.5320000  30.2120000   2.3550000   2.7150000
  29.4530000   2.6030000   2.1870000  30.7670000   3.1350000   2.7160000
  30.1860000   2.4870000   2.6480000  32.3340000   1.5390000   7.2280000
  31.6720000   1.9450000   6.6680000  33.0290000   1.2760000   6.6250000
  32.3380000   1.5580000   7.0790000  33.9470000   6.7710000  12.6070000
  33.6820000   6.1190000  13.2570000  34.1660000   6.2580000  11.8290000
  33.9410000   6.6220000  12.5910000  24.6930000   8.5640000   6.8320000
  24.8810000   7.8120000   6.2700000  25.5490000   8.9550000   7.0020000
  24.8260000   8.5180000   6.7820000  26.3490000   3.4240000  16.0720000
  27.2710000   3.5000000  16.3160000  25.8970000   4.0410000  16.6470000
  26.4090000   3.5120000  16.1760000  23.3400000   0.4340000   8.9910000
  23.5110000   1.3550000   9.1900000  23.9060000  -0.0500000   9.5920000
  23.4340000   0.4900000   9.0930000  27.1430000  13.7710000   1.1150000
  27.9870000  13.7330000   1.5660000  27.3660000  13.9760000   0.2070000
  27.2800000  13.7920000   1.0570000  24.1940000   9.5610000   9.3840000
  24.4510000   9.1430000   8.5620000  24.2780000   8.8690000  10.0400000
  24.2380000   9.4190000   9.3630000  31.5060000  14.0160000   9.8430000
  31.6040000  14.2630000   8.9230000  30.6520000  14.3660000  10.0950000
  31.4090000  14.0920000   9.7580000  28.8960000  18.4300000   7.1820000
  28.7110000  17.6030000   6.7360000  28.5840000  19.1030000   6.5770000
  28.8320000  18.4100000   7.0470000  35.0000000   0.3000000  18.8070000
  34.4590000  -0.2150000  19.4050000  34.5360000   1.1330000  18.7200000
  34.8720000   0.3410000  18.8730000  30.4840000  17.6650000   0.2720000
  30.6420000  18.5040000  -0.1610000  30.7460000  17.8120000   1.1810000
  30.5380000  17.7910000   0.3330000  32.5940000  16.4420000  10.3820000
  32.0500000  17.0420000   9.8710000  32.2030000  15.5810000  10.2360000
  32.4750000  16.4090000  10.2980000  26.6860000  18.8100000   9.3550000
  26.6520000  18.1230000  10.0200000  27.1620000  18.4150000   8.6250000
  26.7420000  18.6720000   9.3470000  28.5650000   9.5380000   2.0430000
  29.2950000  10.1580000   2.0320000  27.7830000  10.0890000   2.0120000
  28.5580000   9.6880000   2.0370000  28.1970000   6.9190000  11.1590000
  27.7480000   6.1650000  11.5410000  28.9190000   6.5390000  10.6590000
  28.2320000   6.7740000  11.1440000  29.7320000  11.0430000  12.8710000
  29.4560000  11.8670000  13.2730000  30.6830000  11.0300000  12.9800000
  29.8190000  11.1470000  12.9360000  25.2200000   3.6560000   5.1420000
  25.0720000   4.5990000   5.0640000  24.4280000   3.3240000   5.5660000
  25.1000000   3.7340000   5.1860000  29.0880000  18.2660000  11.1200000
  29.8780000  18.8040000  11.0660000  28.4880000  18.6580000  10.4860000
  29.1120000  18.3850000  11.0320000  28.8710000   4.0000000  17.5610000
  28.4050000   4.5980000  18.1450000  29.4660000   4.5640000  17.0660000
  28.8870000   4.1480000  17.5720000  24.4760000   4.1450000   1.7370000
  23.5590000   3.9300000   1.9030000  24.9510000   3.7570000   2.4720000
  24.4190000   4.0680000   1.8520000  32.0780000  16.8960000   5.9720000
  31.7100000  17.4770000   6.6370000  32.9690000  17.2190000   5.8380000
  32.1450000  17.0120000   6.0400000  30.1830000   9.3330000  10.9570000
  29.9150000   9.9760000  11.6140000  29.3840000   9.1510000  10.4610000
  30.0460000   9.3920000  10.9770000  30.1600000   7.6670000  13.5190000
  29.9970000   7.9760000  12.6280000  29.2990000   7.4030000  13.8420000
  30.0290000   7.6730000  13.4470000  30.3820000   1.8880000  17.6570000
  30.3790000   1.5980000  16.7450000  29.7100000   2.5690000  17.6940000
  30.2950000   1.9380000  17.5450000  22.0410000   0.5510000   1.6650000
  22.0420000   1.2930000   2.2690000  22.5450000   0.8550000   0.9110000
  22.1060000   0.6850000   1.6460000  22.9570000  12.5870000   1.9490000
  23.0430000  12.5360000   0.9970000  22.4040000  13.3550000   2.0980000
  22.8970000  12.6790000   1.8460000  30.0920000  11.3300000  16.0550000
  29.2740000  11.1740000  15.5840000  30.1400000  12.2820000  16.1440000
  29.9940000  11.4320000  16.0060000  34.4420000   6.0260000  17.2860000
  35.1550000   5.3940000  17.3810000  34.8820000   6.8630000  17.1400000
  34.5890000   6.0520000  17.2790000  20.4710000   7.8080000  10.8080000
  19.6920000   8.3140000  11.0390000  20.2090000   6.8950000  10.9310000
  20.3380000   7.7560000  10.8530000  23.5670000  11.9650000   7.9140000
  23.4800000  12.7450000   8.4630000  23.6390000  11.2410000   8.5370000
  23.5650000  11.9720000   8.0640000  23.6690000   7.1060000  15.0980000
  23.5780000   6.9860000  14.1530000  22.9450000   7.6840000  15.3360000
  23.5650000   7.1650000  15.0070000  24.7510000   0.6220000   6.5500000
  24.3460000   0.2910000   7.3520000  24.8580000  -0.1520000   5.9980000
  24.7130000   0.4810000   6.5820000  35.8360000  16.0810000   6.2900000
  35.9060000  15.4520000   7.0070000  35.9020000  15.5490000   5.4970000
  35.8530000  15.9330000   6.2800000  25.2940000   6.6680000   4.4360000
  25.6670000   6.6030000   3.5570000  24.3890000   6.3720000   4.3350000
  25.2260000   6.6210000   4.3110000  24.9930000  13.8250000   2.8700000
  24.2610000  13.3360000   2.4940000  25.6530000  13.8380000   2.1780000
  24.9830000  13.7640000   2.7340000  27.4390000   3.5650000   6.8210000
  26.5870000   3.4270000   6.4090000  27.4890000   4.5120000   6.9570000
  27.3370000   3.6690000   6.7860000  19.9390000  17.1700000  13.4410000
  19.6460000  16.8970000  12.5710000  19.6310000  18.0720000  13.5250000
  19.8620000  17.2500000  13.3400000  22.3110000   4.2330000  16.0120000
  23.1020000   4.2660000  15.4750000  21.9510000   5.1190000  15.9640000
  22.3660000   4.3500000  15.9370000  28.4840000   7.2360000   0.0600000
  28.4650000   7.8860000   0.7620000  28.8390000   6.4480000   0.4720000
  28.5270000   7.2190000   0.2020000  33.4670000   2.4860000  17.4810000
  33.5280000   2.1390000  16.5910000  32.5260000   2.5340000  17.6550000
  33.3540000   2.4480000  17.3890000  23.8540000  14.5340000  12.8390000
  23.2840000  15.2210000  13.1860000  23.4020000  13.7180000  13.0530000
  23.7230000  14.5180000  12.9110000  30.4460000  16.1150000   3.9300000
  29.7610000  16.0430000   4.5950000  31.2440000  16.2930000   4.4270000
  30.4600000  16.1280000   4.0790000  28.1570000   1.7390000   4.9120000
  27.9320000   2.5240000   5.4110000  29.0560000   1.8910000   4.6200000
  28.2440000   1.8590000   4.9390000  33.5840000   1.4590000   9.7820000
  34.4550000   1.0660000   9.8390000  33.4850000   1.6900000   8.8590000
  33.6830000   1.4380000   9.6710000  30.4920000   1.7260000  14.9160000
  30.2320000   0.9500000  14.4190000  31.4480000   1.7310000  14.8680000
  30.5810000   1.6270000  14.8460000  33.6090000   5.3240000   5.0300000
  33.3880000   5.0740000   5.9280000  34.4250000   4.8580000   4.8470000
  33.6850000   5.2320000   5.1220000  31.4550000  15.0870000   0.1770000
  31.0550000  15.9550000   0.2270000  30.9790000  14.5660000   0.8240000
  31.3430000  15.1320000   0.2660000  27.4120000   3.8740000  10.1970000
  26.5610000   3.4430000  10.1100000  27.5110000   4.0210000  11.1380000
  27.3150000   3.8380000  10.3060000  26.0430000   0.8950000  17.3480000
  25.4900000   1.2060000  18.0640000  26.1040000   1.6410000  16.7510000
  25.9800000   1.0300000  17.3630000  24.8340000  13.4080000   6.0330000
  24.1980000  12.9530000   6.5840000  24.3460000  14.1420000   5.6600000
  24.6910000  13.4440000   6.0560000  30.7120000  15.0790000  14.2380000
  30.5090000  14.7690000  15.1200000  31.2260000  14.3710000  13.8480000
  30.7520000  14.9480000  14.3010000  27.1240000  15.0490000  17.0200000
  26.7370000  14.6840000  16.2240000  26.4760000  15.6780000  17.3350000
  26.9910000  15.0820000  16.9590000  19.4840000  14.4030000  14.3890000
  19.1020000  15.2460000  14.6330000  20.3080000  14.6290000  13.9580000
  19.5400000  14.5400000  14.3650000  21.3870000   4.0290000   9.8110000
  21.2930000   3.5620000   8.9810000  22.2100000   3.7060000  10.1760000
  21.4800000   3.9280000   9.7520000  35.0920000  12.5400000   5.1340000
  35.1140000  12.6560000   6.0840000  35.2650000  13.4130000   4.7830000
  35.1170000  12.6670000   5.2110000  34.4670000  18.4800000   5.4410000
  34.2030000  18.4450000   4.5220000  35.0890000  17.7590000   5.5400000
  34.5130000  18.3830000   5.3360000  31.6410000  18.4760000   2.9520000
  31.1250000  17.7910000   3.3780000  31.1580000  19.2830000   3.1260000
  31.5130000  18.4910000   3.0290000  23.5500000   3.2870000  11.0670000
  24.0020000   2.7080000  11.6810000  24.1130000   3.3020000  10.2940000
  23.6800000   3.2150000  11.0470000  31.3780000  20.0190000  11.2530000
  32.1530000  19.8630000  10.7140000  31.3470000  20.9700000  11.3590000
  31.4730000  20.1210000  11.1980000  27.9480000  16.4310000   5.4820000
  27.7100000  15.6180000   5.9260000  27.1430000  16.7090000   5.0450000
  27.8150000  16.3630000   5.4830000  33.1410000  15.8510000  16.7890000
  33.4110000  14.9470000  16.9490000  32.1890000  15.8380000  16.8900000
  33.0530000  15.7340000  16.8230000  33.4510000  11.5570000  14.4860000
  32.8410000  10.8210000  14.5420000  33.0190000  12.1810000  13.9030000
  33.3180000  11.5420000  14.4190000  22.5490000  12.1450000  12.9110000
  22.0880000  12.4890000  12.1460000  22.6300000  11.2070000  12.7390000
  22.5000000  12.0690000  12.7910000  20.7450000   9.7860000   5.0960000
  21.7010000   9.8180000   5.1230000  20.4740000  10.7030000   5.1340000
  20.8330000   9.9070000   5.1040000  25.5850000   5.2450000  18.0400000
  24.8200000   4.8480000  18.4570000  25.3310000   6.1560000  17.8910000
  25.4540000   5.3110000  18.0740000  31.4130000   7.3370000   5.4510000
  32.0330000   7.7810000   4.8720000  30.6030000   7.8410000   5.3660000
  31.3890000   7.4590000   5.3660000  18.0330000  13.3890000   1.4120000
  18.6610000  12.8660000   1.9110000  18.5270000  13.6950000   0.6510000
  18.1770000  13.3610000   1.3790000  23.7050000  15.4730000   4.6830000
  23.0050000  15.8710000   4.1660000  24.1370000  14.8700000   4.0770000
  23.6710000  15.4470000   4.5390000  32.3060000  13.4160000  12.5050000
  32.1330000  13.3390000  11.5670000  33.0890000  13.9630000  12.5600000
  32.3840000  13.4760000  12.3920000  27.1240000   9.8000000   6.8240000
  27.6380000   9.2000000   6.2840000  26.8500000  10.4900000   6.2200000
  27.1540000   9.8110000   6.6780000  34.1520000  18.3670000  16.1150000
  34.5610000  18.5390000  16.9630000  33.8830000  17.4500000  16.1600000
  34.1700000  18.2720000  16.2290000  33.1660000   3.0290000  14.3830000
  32.8790000   3.8550000  14.7740000  32.9430000   3.1130000  13.4560000
  33.1000000   3.1460000  14.3150000  19.6110000  17.1550000   0.8700000
  20.1680000  16.3960000   1.0420000  20.1790000  17.9090000   1.0260000
  19.7550000  17.1540000   0.9120000  31.5600000  11.1410000  18.1770000
  30.7490000  11.1790000  17.6700000  31.9240000  10.2780000  17.9820000
  31.5030000  11.0360000  18.0870000  24.9000000   3.1840000   8.7350000
  24.7220000   3.7740000   8.0030000  25.3850000   2.4570000   8.3450000
  24.9390000   3.1670000   8.5920000  18.5050000   9.7740000   7.3120000
  19.1020000  10.0300000   6.6080000  18.8080000  10.2690000   8.0740000
  18.6200000   9.8700000   7.3190000  21.1860000  13.2810000  11.1170000
  21.4450000  13.9740000  10.5090000  20.3140000  13.5400000  11.4160000
  21.1080000  13.4030000  11.0770000  34.8740000  10.8710000   8.0980000
  35.7270000  10.5300000   7.8280000  34.8960000  10.8420000   9.0540000
  34.9860000  10.8230000   8.1850000  27.8040000   7.7820000  16.0030000
  27.0500000   7.4520000  15.5140000  27.6030000   7.5840000  16.9170000
  27.6820000   7.7140000  16.0570000  31.3540000   7.1050000  18.0720000
  30.5700000   7.0660000  18.6200000  31.9910000   6.5540000  18.5260000
  31.3350000   7.0300000  18.2000000  33.0200000  11.5420000   3.3130000
  33.4160000  11.8830000   4.1150000  33.5110000  11.9610000   2.6060000
  33.1330000  11.6390000   3.3250000  32.7490000   5.6280000  15.2750000
  33.4420000   5.8220000  15.9070000  32.1130000   6.3340000  15.3930000
  32.7560000   5.7430000  15.3710000  33.2140000  17.8980000  12.7500000
  32.7410000  18.7310000  12.7430000  32.6830000  17.3170000  12.2060000
  33.0850000  17.9300000  12.6800000  22.7250000  16.7550000  -5.0060000
  21.7710000  16.6870000  -5.0380000  22.9140000  17.0620000  -4.1200000
  22.6260000  16.7860000  -4.8970000  27.4900000  14.1990000 -11.8430000
  27.3160000  14.3600000 -10.9150000  26.7250000  13.7130000 -12.1490000
  27.3700000  14.1570000 -11.7630000  24.0610000   9.0960000 -16.5120000
  23.9070000   9.5530000 -15.6850000  24.7730000   8.4860000 -16.3200000
  24.1320000   9.0760000 -16.3820000  27.4560000   4.3050000  -5.9070000
  26.8530000   3.6640000  -5.5320000  28.2450000   4.2360000  -5.3690000
  27.4800000   4.2150000  -5.7900000  27.9940000   0.7420000   0.3710000
  28.8860000   0.5130000   0.1070000  27.4720000   0.6210000  -0.4220000
  28.0420000   0.6980000   0.2360000  34.2220000  15.2550000 -18.3260000
  33.3600000  15.5830000 -18.5820000  34.1260000  14.3030000 -18.3270000
  34.0990000  15.1750000 -18.3590000  20.9480000  15.3520000 -11.5490000
  20.9860000  16.2450000 -11.8930000  20.1490000  15.3310000 -11.0230000
  20.8510000  15.4640000 -11.5260000  25.6590000  17.1420000 -14.8600000
  24.8600000  16.6150000 -14.8500000  26.0030000  17.0390000 -15.7470000
  25.6010000  17.0610000 -14.9720000  29.8790000   4.1310000  -4.6390000
  30.0570000   3.2490000  -4.3130000  30.1980000   4.7110000  -3.9470000
  29.9430000   4.0920000  -4.5080000  29.5670000  12.1270000 -12.3930000
  29.1410000  11.5200000 -12.9970000  28.9040000  12.7940000 -12.2150000
  29.4280000  12.1350000 -12.4470000  27.5340000   3.1780000 -17.1510000
  27.2680000   2.7150000 -16.3560000  27.5500000   2.5010000 -17.8270000
  27.5020000   3.0320000 -17.1350000  27.7690000  10.3660000  -3.8670000
  27.6410000   9.5010000  -3.4780000  28.2120000  10.1910000  -4.6980000
  27.8090000  10.2330000  -3.9240000  30.6450000  11.3180000 -16.8480000
  31.4150000  11.3390000 -16.2810000  30.9640000  10.9510000 -17.6720000
  30.7840000  11.2740000 -16.8810000  18.8930000   4.6960000  -5.3100000
  19.1700000   5.2650000  -4.5920000  18.2910000   4.0730000  -4.9030000
  18.8520000   4.6890000  -5.1660000  34.3630000  12.5550000 -18.1010000
  34.4050000  12.4210000 -19.0480000  35.2490000  12.8220000 -17.8580000
  34.4820000  12.5720000 -18.1910000  19.7660000  11.0330000  -2.7170000
  18.8450000  10.8130000  -2.8570000  19.8460000  11.1400000  -1.7700000
  19.6580000  11.0180000  -2.6140000  34.7060000   2.9850000 -16.0130000
  34.8380000   2.8410000 -15.0760000  33.8380000   3.3840000 -16.0730000
  34.6120000   3.0170000 -15.9000000  31.3560000  14.7220000 -11.5120000
  31.5320000  15.5720000 -11.9150000  30.5970000  14.3850000 -11.9860000
  31.2820000  14.7880000 -11.6240000  31.1460000  18.0470000 -10.2600000
  31.7320000  18.7840000 -10.4350000  30.3640000  18.2330000 -10.7790000
  31.1210000  18.1650000 -10.3490000  23.4680000   5.3020000 -11.7400000
  23.0610000   5.3010000 -12.6070000  22.9820000   5.9650000 -11.2490000
  23.3540000   5.3870000 -11.7880000  21.5870000   1.6980000  -3.7220000
  21.7940000   2.5960000  -3.4650000  21.2310000   1.2970000  -2.9290000
  21.5680000   1.7610000  -3.5880000  22.8950000   2.4890000 -13.0220000
  22.1370000   2.4760000 -12.4370000  23.4270000   1.7450000 -12.7410000
  22.8660000   2.3920000 -12.9110000  29.9350000   6.1870000  -2.7230000
  30.5210000   6.5000000  -2.0340000  29.2090000   6.8120000  -2.7230000
  29.9170000   6.3070000  -2.6350000  27.5550000   6.6880000 -13.1910000
  26.7300000   6.6700000 -13.6760000  27.3040000   6.5020000 -12.2860000
  27.4170000   6.6620000 -13.1370000  24.6690000  16.3530000  -8.5740000
  24.4080000  15.9780000  -7.7330000  25.4000000  15.8080000  -8.8630000
  24.7290000  16.2350000  -8.5040000  22.9070000  14.5460000  -9.8590000
  22.1830000  14.8490000 -10.4070000  23.5010000  15.2960000  -9.8110000
  22.8910000  14.6810000  -9.9230000  19.4560000   4.7000000   0.3310000
  19.2580000   4.7810000  -0.6010000  18.6620000   5.0030000   0.7720000
  19.3290000   4.7490000   0.2680000  22.3800000   8.3100000 -18.5210000
  21.7770000   9.0470000 -18.6170000  23.0090000   8.6000000 -17.8600000
  22.3830000   8.4410000 -18.4490000  26.8070000  16.7720000 -17.2280000
  27.2660000  15.9500000 -17.0560000  27.5050000  17.4120000 -17.3670000
  26.9550000  16.7490000 -17.2240000  25.5300000   7.2630000  -8.2460000
  26.4110000   7.5550000  -8.0140000  25.6160000   6.9290000  -9.1390000
  25.6540000   7.2580000  -8.3310000  19.4240000  13.7260000  -0.9120000
  18.6620000  14.2940000  -1.0290000  19.6290000  13.4160000  -1.7940000
  19.3520000  13.7590000  -1.0400000  21.4950000  15.0210000   0.4250000
  21.9780000  15.5820000  -0.1820000  21.0520000  14.3850000  -0.1360000
  21.5000000  15.0120000   0.2760000  25.1210000  16.7570000  -0.7770000
  25.6950000  16.6700000  -0.0160000  25.0790000  17.6990000  -0.9390000
  25.1890000  16.8660000  -0.7010000  29.8270000   3.0820000 -10.0620000
  28.8750000   3.0190000  -9.9910000  30.1550000   2.3540000  -9.5340000
  29.7470000   2.9810000  -9.9850000  34.9560000  11.0900000  -7.9400000
  35.3960000  11.5970000  -7.2570000  34.2840000  10.5930000  -7.4740000
  34.9270000  11.0910000  -7.7930000  25.4760000  10.6110000  -0.8760000
  25.3190000   9.6670000  -0.9120000  25.3870000  10.9030000  -1.7830000
  25.4440000  10.5270000  -0.9970000  29.6830000  13.9190000 -16.7740000
  29.9870000  13.0260000 -16.6180000  30.2100000  14.4590000 -16.1850000
  29.7890000  13.8740000 -16.6790000  32.3060000   4.4070000 -16.1980000
  32.4100000   4.7510000 -15.3110000  32.1760000   5.1830000 -16.7430000
  32.3030000   4.5500000 -16.1540000  34.9480000   5.2550000  -8.8710000
  35.8600000   5.2660000  -8.5780000  34.9480000   4.6700000  -9.6290000
  35.0650000   5.1810000  -8.9300000  32.7930000   9.5920000  -7.0200000
  31.9180000   9.3350000  -7.3100000  33.1450000   8.8090000  -6.5960000
  32.7260000   9.4590000  -7.0030000  22.5010000  16.5080000  -1.8620000
  22.2500000  17.4120000  -1.6710000  23.4070000  16.4430000  -1.5590000
  22.5860000  16.6160000  -1.7990000  24.5350000   1.5810000 -18.2110000
  24.8770000   1.5900000 -17.3170000  24.0500000   2.4030000 -18.2890000
  24.5170000   1.6880000 -18.1070000  19.7040000   1.4970000  -8.3070000
  20.5380000   1.9510000  -8.4310000  19.1160000   1.8960000  -8.9470000
  19.7360000   1.6060000  -8.4040000  20.8030000   0.6300000  -1.2950000
  19.9700000   0.2030000  -1.0940000  20.7700000   1.4570000  -0.8150000
  20.6920000   0.6810000  -1.2080000  27.1380000   6.0920000 -10.5570000
  27.2240000   5.3080000 -10.0140000  27.5780000   6.7790000 -10.0570000
  27.2050000   6.0800000 -10.4240000  34.2340000   0.2310000 -16.3430000
  34.3620000   1.1460000 -16.5950000  33.2850000   0.1360000 -16.2580000
  34.1290000   0.3360000 -16.3640000  20.2130000  18.3140000 -14.0380000
  19.4320000  18.1830000 -14.5760000  20.1830000  19.2390000 -13.7940000
  20.1090000  18.4160000 -14.0760000  30.2640000  14.1160000  -2.0870000
  30.8460000  13.9520000  -1.3460000  29.6700000  14.8020000  -1.7790000
  30.2620000  14.1830000  -1.9530000  26.5660000  14.5800000  -9.3480000
  26.0860000  13.7720000  -9.1710000  27.2950000  14.5660000  -8.7290000
  26.5980000  14.4750000  -9.2460000  29.3710000   5.4330000 -17.0810000
  28.7450000   4.7090000 -17.0570000  29.5890000   5.5920000 -16.1630000
  29.3190000   5.3610000 -16.9610000  26.1090000   7.0810000  -4.9610000
  25.2640000   6.7610000  -4.6440000  26.5820000   6.2900000  -5.2200000
  26.0610000   6.9390000  -4.9530000  23.0360000  12.2670000  -0.6270000
  23.8470000  11.7790000  -0.7690000  22.7670000  12.5440000  -1.5030000
  23.1050000  12.2400000  -0.7580000  21.9440000  16.8390000 -15.5040000
  21.3620000  17.3370000 -14.9310000  22.1730000  17.4500000 -16.2040000
  21.8990000  16.9810000 -15.5200000  25.2980000  11.3070000  -3.5990000
  26.1780000  10.9340000  -3.6510000  24.7600000  10.7260000  -4.1360000
  25.3420000  11.1850000  -3.6740000  34.2870000  15.0180000  -5.2420000
  33.9360000  14.9150000  -4.3570000  34.4350000  15.9600000  -5.3320000
  34.2610000  15.1250000  -5.1400000  33.6680000   4.1150000 -11.4920000
  34.3640000   3.7290000 -12.0250000  33.0580000   3.3930000 -11.3370000
  33.6780000   3.9730000 -11.5410000  31.7420000   9.5640000  -3.9500000
  31.1850000   9.1700000  -4.6220000  31.1660000  10.1740000  -3.4900000
  31.5970000   9.5920000  -3.9770000  35.6560000   8.8250000  -0.7560000
  34.8330000   9.1650000  -1.1050000  35.5120000   8.7690000   0.1890000
  35.5330000   8.8610000  -0.6800000  29.5690000   5.5510000 -14.4170000
  28.7460000   5.8340000 -14.0210000  30.2470000   5.9370000 -13.8620000
  29.5510000   5.6360000 -14.2950000  22.5810000   9.1420000  -6.3240000
  22.2040000   9.0150000  -5.4540000  22.0180000   8.6310000  -6.9060000
  22.4610000   9.0610000  -6.2870000  31.5880000  10.6520000 -10.8690000
  32.1330000  11.1530000 -10.2620000  30.8940000  11.2590000 -11.1260000
  31.5690000  10.7930000 -10.8240000  19.5710000  12.2180000 -10.0480000
  19.9650000  12.1480000 -10.9180000  20.1830000  11.7630000  -9.4710000
  19.7000000  12.1510000 -10.0860000  34.2920000   7.8980000 -14.6760000
  34.2490000   8.5170000 -13.9460000  33.9260000   7.0870000 -14.3240000
  34.2400000   7.8740000 -14.5370000  29.0420000   8.7620000 -14.1970000
  28.3700000   8.0810000 -14.1670000  29.1210000   8.9790000 -15.1260000
  28.9660000   8.7030000 -14.3120000  22.7290000   3.6150000  -0.2340000
  22.5760000   3.8950000  -1.1360000  22.4920000   4.3750000   0.2970000
  22.6790000   3.7480000  -0.2810000  30.2280000  17.7410000  -5.0790000
  29.6790000  17.6720000  -5.8590000  30.5920000  16.8640000  -4.9630000
  30.2050000  17.6200000  -5.1640000  24.6620000   7.7360000  -1.1280000
  24.5470000   7.4520000  -2.0350000  23.7710000   7.8390000  -0.7950000
  24.5330000   7.7130000  -1.2020000  23.7070000   6.0630000  -6.2820000
  23.1170000   5.3240000  -6.4340000  24.3190000   6.0350000  -7.0170000
  23.7100000   5.9650000  -6.3960000  33.0570000   8.9080000  -1.5680000
  32.3660000   8.2680000  -1.4000000  32.8490000   9.2640000  -2.4310000
  32.9420000   8.8710000  -1.6570000  18.6750000   8.0100000 -14.4310000
  19.3400000   8.6100000 -14.0930000  17.8430000   8.4440000 -14.2420000
  18.6540000   8.1420000 -14.3630000  21.0080000  12.4550000 -12.2290000
  21.6870000  12.1750000 -11.6150000  21.1060000  13.4050000 -12.2780000
  21.1070000  12.5410000 -12.1560000  26.4220000  11.1910000 -17.1420000
  26.0390000  10.8820000 -17.9630000  26.6610000  12.1020000 -17.3170000
  26.4040000  11.2680000 -17.2690000  20.6780000   2.6460000 -11.4640000
  20.4400000   1.8270000 -11.8980000  19.9170000   3.2140000 -11.5910000
  20.5500000   2.6140000 -11.5360000  25.2490000   1.4610000 -15.4600000
  25.4940000   0.5860000 -15.1590000  25.0340000   1.9380000 -14.6590000
  25.2530000   1.4100000 -15.3190000  30.4810000   3.2100000 -12.9220000
  30.1870000   3.9250000 -13.4860000  30.2100000   3.4710000 -12.0420000
  30.4090000   3.3350000 -12.8820000  28.9350000  14.8660000  -7.8400000
  28.8710000  14.3460000  -7.0380000  29.4800000  15.6150000  -7.5970000
  28.9960000  14.8950000  -7.7060000  34.4340000  13.7620000 -11.2210000
  33.5190000  13.7720000 -11.5040000  34.5560000  12.8940000 -10.8360000
  34.3320000  13.6520000 -11.2080000  22.0870000   5.7260000 -17.4260000
  21.1620000   5.4830000 -17.3880000  22.0830000   6.6460000 -17.6910000
  21.9690000   5.8130000 -17.4550000  24.0560000  10.0790000 -14.1370000
  24.8790000  10.5650000 -14.1750000  24.1070000   9.5840000 -13.3200000
  24.1680000  10.0780000 -14.0380000  26.3510000  11.7160000 -14.1350000
  25.8280000  12.4190000 -13.7490000  26.3630000  11.9120000 -15.0710000
  26.2860000  11.8310000 -14.2050000  33.3940000   6.5830000 -17.9710000
  33.8720000   6.2300000 -18.7200000  33.8960000   7.3550000 -17.7080000
  33.5190000   6.6370000 -18.0330000  26.1960000  13.7590000  -4.5660000
  25.4130000  14.1650000  -4.9350000  25.9080000  12.8880000  -4.2930000
  26.0590000  13.6990000  -4.5780000  19.9340000  15.7710000  -7.8230000
  20.5890000  16.1320000  -8.4200000  19.2560000  15.4160000  -8.3980000
  19.9310000  15.7720000  -7.9730000  35.2460000  -2.3370000  -8.5720000
  35.3920000  -1.9320000  -7.7170000  34.3010000  -2.2690000  -8.7110000
  35.1440000  -2.2770000  -8.4800000  25.2220000   9.7160000  -6.0870000
  25.5470000   8.9130000  -5.6800000  24.3530000   9.4840000  -6.4130000
  25.1520000   9.5840000  -6.0770000  20.8380000  10.6500000  -0.1180000
  21.6410000  11.1600000  -0.2280000  20.3880000  11.0680000   0.6160000
  20.8830000  10.7690000  -0.0380000  31.3340000   7.7980000 -10.8580000
  31.8320000   7.5910000 -11.6490000  31.5180000   8.7230000 -10.6940000
  31.4210000   7.8900000 -10.9380000  25.9590000   6.5440000 -17.1170000
  25.4780000   5.7270000 -17.2480000  26.3930000   6.7030000 -17.9550000
  25.9530000   6.4600000 -17.2410000  19.9230000  11.5810000 -16.6590000
  20.6900000  11.2580000 -16.1840000  19.1810000  11.3420000 -16.1040000
  19.9260000  11.5090000 -16.5270000  19.2610000   5.3370000  -7.9630000
  20.0590000   4.9870000  -8.3580000  19.2410000   4.9570000  -7.0850000
  19.3600000   5.2430000  -7.9010000  28.6550000   8.3940000 -10.2350000
  28.2480000   9.1540000 -10.6510000  29.5170000   8.3290000 -10.6450000
  28.7130000   8.4830000 -10.3410000  33.1920000   9.6330000 -12.7530000
  33.8660000  10.0450000 -12.2130000  32.3820000  10.0790000 -12.5070000
  33.1750000   9.7430000 -12.6530000  21.3460000  10.1240000  -9.2500000
  22.3030000  10.1080000  -9.2690000  21.1010000   9.3100000  -8.8100000
  21.4370000  10.0180000  -9.1960000  31.6490000   4.1340000  -6.7110000
  31.1950000   4.5760000  -7.4290000  31.1070000   4.3090000  -5.9420000
  31.5220000   4.2130000  -6.7050000  30.1880000   5.6100000  -8.9010000
  30.8140000   6.0600000  -9.4680000  30.0460000   4.7630000  -9.3250000
  30.2500000   5.5590000  -9.0280000  28.7230000  13.4870000  -5.4020000
  29.1160000  14.3080000  -5.1060000  27.8100000  13.5420000  -5.1200000
  28.6570000  13.5990000  -5.3280000  30.2120000   2.3550000 -16.1450000
  29.4530000   2.6030000 -16.6730000  30.7670000   3.1350000 -16.1440000
  30.1860000   2.4870000 -16.2120000  22.7470000   5.6480000 -14.4280000
  22.6570000   5.3770000 -15.3410000  21.8490000   5.8050000 -14.1350000
  22.6200000   5.6340000 -14.5070000  32.3340000   1.5390000 -11.6320000
  31.6720000   1.9450000 -12.1920000  33.0290000   1.2760000 -12.2350000
  32.3380000   1.5580000 -11.7810000  33.9470000   6.7710000  -6.2530000
  33.6820000   6.1190000  -5.6030000  34.1660000   6.2580000  -7.0310000
  33.9410000   6.6220000  -6.2690000  24.6930000   8.5640000 -12.0280000
  24.8810000   7.8120000 -12.5900000  25.5490000   8.9550000 -11.8580000
  24.8260000   8.5180000 -12.0780000  26.3490000   3.4240000  -2.7880000
  27.2710000   3.5000000  -2.5440000  25.8970000   4.0410000  -2.2130000
  26.4090000   3.5120000  -2.6840000  23.3400000   0.4340000  -9.8690000
  23.5110000   1.3550000  -9.6700000  23.9060000  -0.0500000  -9.2680000
  23.4340000   0.4900000  -9.7670000  27.1430000  13.7710000 -17.7450000
  27.9870000  13.7330000 -17.2940000  27.3660000  13.9760000 -18.6530000
  27.2800000  13.7920000 -17.8030000  24.1940000   9.5610000  -9.4760000
  24.4510000   9.1430000 -10.2980000  24.2780000   8.8690000  -8.8200000
  24.2380000   9.4190000  -9.4970000  31.5060000  14.0160000  -9.0170000
  31.6040000  14.2630000  -9.9370000  30.6520000  14.3660000  -8.7650000
  31.4090000  14.0920000  -9.1020000  28.8960000  18.4300000 -11.6780000
  28.7110000  17.6030000 -12.1240000  28.5840000  19.1030000 -12.2830000
  28.8320000  18.4100000 -11.8130000  35.0000000   0.3000000  -0.0530000
  34.4590000  -0.2150000   0.5450000  34.5360000   1.1330000  -0.1400000
  34.8720000   0.3410000   0.0130000  30.4840000  17.6650000 -18.5880000
  30.6420000  18.5040000 -19.0210000  30.7460000  17.8120000 -17.6790000
  30.5380000  17.7910000 -18.5270000  32.5940000  16.4420000  -8.4780000
  32.0500000  17.0420000  -8.9890000  32.2030000  15.5810000  -8.6240000
  32.4750000  16.4090000  -8.5620000  26.6860000  18.8100000  -9.5050000
  26.6520000  18.1230000  -8.8400000  27.1620000  18.4150000 -10.2350000
  26.7420000  18.6720000  -9.5130000  28.5650000   9.5380000 -16.8170000
  29.2950000  10.1580000 -16.8280000  27.7830000  10.0890000 -16.8480000
  28.5580000   9.6880000 -16.8230000  28.1970000   6.9190000  -7.7010000
  27.7480000   6.1650000  -7.3190000  28.9190000   6.5390000  -8.2010000
  28.2320000   6.7740000  -7.7160000  29.7320000  11.0430000  -5.9890000
  29.4560000  11.8670000  -5.5870000  30.6830000  11.0300000  -5.8800000
  29.8190000  11.1470000  -5.9240000  25.2200000   3.6560000 -13.7180000
  25.0720000   4.5990000 -13.7960000  24.4280000   3.3240000 -13.2940000
  25.1000000   3.7340000 -13.6740000  29.0880000  18.2660000  -7.7400000
  29.8780000  18.8040000  -7.7940000  28.4880000  18.6580000  -8.3740000
  29.1120000  18.3850000  -7.8280000  28.8710000   4.0000000  -1.2990000
  28.4050000   4.5980000  -0.7150000  29.4660000   4.5640000  -1.7940000
  28.8870000   4.1480000  -1.2880000  24.4760000   4.1450000 -17.1230000
  23.5590000   3.9300000 -16.9570000  24.9510000   3.7570000 -16.3880000
  24.4190000   4.0680000 -17.0080000  21.1180000   8.8910000  -3.8520000
  20.4390000   9.5300000  -3.6320000  20.7090000   8.0420000  -3.6890000
  20.9780000   8.8640000  -3.8030000  32.0780000  16.8960000 -12.8880000
  31.7100000  17.4770000 -12.2230000  32.9690000  17.2190000 -13.0220000
  32.1450000  17.0120000 -12.8200000  19.2660000   1.8000000  -5.2700000
  20.1280000   1.7610000  -4.8560000  19.4520000   1.9500000  -6.1970000
  19.4000000   1.8140000  -5.3360000  30.1830000   9.3330000  -7.9030000
  29.9150000   9.9760000  -7.2460000  29.3840000   9.1510000  -8.3990000
  30.0460000   9.3920000  -7.8830000  18.7250000   6.9710000  -1.2830000
  18.1250000   7.7040000  -1.1420000  19.2720000   6.9540000  -0.4970000
  18.7180000   7.0630000  -1.1640000  20.0810000   5.8720000 -13.2400000
  20.4810000   6.4570000 -12.5960000  19.6170000   6.4570000 -13.8390000
  20.0730000   6.0220000 -13.2340000  30.1600000   7.6670000  -5.3410000
  29.9970000   7.9760000  -6.2320000  29.2990000   7.4030000  -5.0180000
  30.0290000   7.6730000  -5.4130000  30.3820000   1.8880000  -1.2030000
  30.3790000   1.5980000  -2.1150000  29.7100000   2.5690000  -1.1660000
  30.2950000   1.9380000  -1.3150000  22.0410000   0.5510000 -17.1950000
  22.0420000   1.2930000 -16.5910000  22.5450000   0.8550000 -17.9490000
  22.1060000   0.6850000 -17.2140000  22.9570000  12.5870000 -16.9110000
  23.0430000  12.5360000 -17.8630000  22.4040000  13.3550000 -16.7620000
  22.8970000  12.6790000 -17.0140000  30.0920000  11.3300000  -2.8050000
  29.2740000  11.1740000  -3.2760000  30.1400000  12.2820000  -2.7160000
  29.9940000  11.4320000  -2.8540000  34.4420000   6.0260000  -1.5740000
  35.1550000   5.3940000  -1.4790000  34.8820000   6.8630000  -1.7200000
  34.5890000   6.0520000  -1.5810000  20.4710000   7.8080000  -8.0520000
  19.6920000   8.3140000  -7.8210000  20.2090000   6.8950000  -7.9290000
  20.3380000   7.7560000  -8.0070000  23.5670000  11.9650000 -10.9460000
  23.4800000  12.7450000 -10.3970000  23.6390000  11.2410000 -10.3230000
  23.5650000  11.9720000 -10.7960000  19.1980000   3.0490000 -15.7410000
  19.1410000   2.7950000 -16.6620000  18.6500000   3.8310000 -15.6730000
  19.1200000   3.1170000 -15.8500000  23.6690000   7.1060000  -3.7620000
  23.5780000   6.9860000  -4.7070000  22.9450000   7.6840000  -3.5240000
  23.5650000   7.1650000  -3.8530000  24.7510000   0.6220000 -12.3100000
  24.3460000   0.2910000 -11.5080000  24.8580000  -0.1520000 -12.8620000
  24.7130000   0.4810000 -12.2780000  35.8360000  16.0810000 -12.5700000
  35.9060000  15.4520000 -11.8530000  35.9020000  15.5490000 -13.3630000
  35.8530000  15.9330000 -12.5800000  25.2940000   6.6680000 -14.4240000
  25.6670000   6.6030000 -15.3030000  24.3890000   6.3720000 -14.5250000
  25.2260000   6.6210000 -14.5490000  24.9930000  13.8250000 -15.9900000
  24.2610000  13.3360000 -16.3660000  25.6530000  13.8380000 -16.6820000
  24.9830000  13.7640000 -16.1260000  27.4390000   3.5650000 -12.0390000
  26.5870000   3.4270000 -12.4510000  27.4890000   4.5120000 -11.9030000
  27.3370000   3.6690000 -12.0740000  19.9390000  17.1700000  -5.4190000
  19.6460000  16.8970000  -6.2890000  19.6310000  18.0720000  -5.3350000
  19.8620000  17.2500000  -5.5200000  22.3110000   4.2330000  -2.8480000
  23.1020000   4.2660000  -3.3850000  21.9510000   5.1190000  -2.8960000
  22.3660000   4.3500000  -2.9230000  28.4840000   7.2360000 -18.8000000
  28.4650000   7.8860000 -18.0980000  28.8390000   6.4480000 -18.3880000
  28.5270000   7.2190000 -18.6580000  33.4670000   2.4860000  -1.3790000
  33.5280000   2.1390000  -2.2690000  32.5260000   2.5340000  -1.2050000
  33.3540000   2.4480000  -1.4710000  23.8540000  14.5340000  -6.0210000
  23.2840000  15.2210000  -5.6740000  23.4020000  13.7180000  -5.8070000
  23.7230000  14.5180000  -5.9490000  30.4460000  16.1150000 -14.9300000
  29.7610000  16.0430000 -14.2650000  31.2440000  16.2930000 -14.4330000
  30.4600000  16.1280000 -14.7810000  28.1570000   1.7390000 -13.9480000
  27.9320000   2.5240000 -13.4490000  29.0560000   1.8910000 -14.2400000
  28.2440000   1.8590000 -13.9210000  33.5840000   1.4590000  -9.0780000
  34.4550000   1.0660000  -9.0210000  33.4850000   1.6900000 -10.0010000
  33.6830000   1.4380000  -9.1890000  30.4920000   1.7260000  -3.9440000
  30.2320000   0.9500000  -4.4410000  31.4480000   1.7310000  -3.9920000
  30.5810000   1.6270000  -4.0140000  33.6090000   5.3240000 -13.8300000
  33.3880000   5.0740000 -12.9320000  34.4250000   4.8580000 -14.0130000
  33.6850000   5.2320000 -13.7380000  31.4550000  15.0870000 -18.6830000
  31.0550000  15.9550000 -18.6330000  30.9790000  14.5660000 -18.0360000
  31.3430000  15.1320000 -18.5940000  27.4120000   3.8740000  -8.6630000
  26.5610000   3.4430000  -8.7500000  27.5110000   4.0210000  -7.7220000
  27.3150000   3.8380000  -8.5540000  26.0430000   0.8950000  -1.5120000
  25.4900000   1.2060000  -0.7960000  26.1040000   1.6410000  -2.1090000
  25.9800000   1.0300000  -1.4970000  24.8340000  13.4080000 -12.8270000
  24.1980000  12.9530000 -12.2760000  24.3460000  14.1420000 -13.2000000
  24.6910000  13.4440000 -12.8040000  30.7120000  15.0790000  -4.6220000
  30.5090000  14.7690000  -3.7400000  31.2260000  14.3710000  -5.0120000
  30.7520000  14.9480000  -4.5590000  33.3570000  12.6810000  -1.9750000
  32.7170000  12.1480000  -1.5030000  33.3190000  12.3580000  -2.8760000
  33.2700000  12.5710000  -2.0300000  27.1240000  15.0490000  -1.8400000
  26.7370000  14.6840000  -2.6360000  26.4760000  15.6780000  -1.5250000
  26.9910000  15.0820000  -1.9010000  19.4840000  14.4030000  -4.4710000
  19.1020000  15.2460000  -4.2270000  20.3080000  14.6290000  -4.9020000
  19.5400000  14.5400000  -4.4950000  21.3870000   4.0290000  -9.0490000
  21.2930000   3.5620000  -9.8790000  22.2100000   3.7060000  -8.6840000
  21.4800000   3.9280000  -9.1080000  35.0920000  12.5400000 -13.7260000
  35.1140000  12.6560000 -12.7760000  35.2650000  13.4130000 -14.0770000
  35.1170000  12.6670000 -13.6490000  34.4670000  18.4800000 -13.4190000
  34.2030000  18.4450000 -14.3380000  35.0890000  17.7590000 -13.3200000
  34.5130000  18.3830000 -13.5240000  31.6410000  18.4760000 -15.9080000
  31.1250000  17.7910000 -15.4820000  31.1580000  19.2830000 -15.7340000
  31.5130000  18.4910000 -15.8310000  23.5500000   3.2870000  -7.7930000
  24.0020000   2.7080000  -7.1790000  24.1130000   3.3020000  -8.5660000
  23.6800000   3.2150000  -7.8130000  20.1320000   6.3870000  -3.5240000
  19.5660000   6.7480000  -4.2060000  19.6360000   6.5030000  -2.7140000
  19.9960000   6.4480000  -3.5080000  31.3780000  20.0190000  -7.6070000
  32.1530000  19.8630000  -8.1460000  31.3470000  20.9700000  -7.5010000
  31.4730000  20.1210000  -7.6620000  27.9480000  16.4310000 -13.3780000
  27.7100000  15.6180000 -12.9340000  27.1430000  16.7090000 -13.8150000
  27.8150000  16.3630000 -13.3770000  33.1410000  15.8510000  -2.0710000
  33.4110000  14.9470000  -1.9110000  32.1890000  15.8380000  -1.9700000
  33.0530000  15.7340000  -2.0370000  33.4510000  11.5570000  -4.3740000
  32.8410000  10.8210000  -4.3180000  33.0190000  12.1810000  -4.9570000
  33.3180000  11.5420000  -4.4410000  22.5490000  12.1450000  -5.9490000
  22.0880000  12.4890000  -6.7140000  22.6300000  11.2070000  -6.1210000
  22.5000000  12.0690000  -6.0690000  20.7450000   9.7860000 -13.7640000
  21.7010000   9.8180000 -13.7370000  20.4740000  10.7030000 -13.7260000
  20.8330000   9.9070000 -13.7560000  25.5850000   5.2450000  -0.8210000
  24.8200000   4.8480000  -0.4030000  25.3310000   6.1560000  -0.9690000
  25.4540000   5.3110000  -0.7860000  22.1040000   3.0760000 -15.7930000
  22.4120000   3.1410000 -14.8890000  21.1860000   2.8180000 -15.7140000
  22.0260000   3.0510000 -15.6670000  31.4130000   7.3370000 -13.4090000
  32.0330000   7.7810000 -13.9880000  30.6030000   7.8410000 -13.4940000
  31.3890000   7.4590000 -13.4940000  18.0330000  13.3890000 -17.4480000
  18.6610000  12.8660000 -16.9490000  18.5270000  13.6950000 -18.2090000
  18.1770000  13.3610000 -17.4810000  23.7050000  15.4730000 -14.1770000
  23.0050000  15.8710000 -14.6940000  24.1370000  14.8700000 -14.7830000
  23.6710000  15.4470000 -14.3210000  32.3060000  13.4160000  -6.3550000
  32.1330000  13.3390000  -7.2930000  33.0890000  13.9630000  -6.3000000
  32.3840000  13.4760000  -6.4680000  27.1240000   9.8000000 -12.0360000
  27.6380000   9.2000000 -12.5760000  26.8500000  10.4900000 -12.6400000
  27.1540000   9.8110000 -12.1820000  34.1520000  18.3670000  -2.7450000
  34.5610000  18.5390000  -1.8970000  33.8830000  17.4500000  -2.7000000
  34.1700000  18.2720000  -2.6310000  33.1660000   3.0290000  -4.4770000
  32.8790000   3.8550000  -4.0860000  32.9430000   3.1130000  -5.4040000
  33.1000000   3.1460000  -4.5450000  19.6110000  17.1550000 -17.9900000
  20.1680000  16.3960000 -17.8180000  20.1790000  17.9090000 -17.8340000
  19.7550000  17.1540000 -17.9480000  31.5600000  11.1410000  -0.6830000
  30.7490000  11.1790000  -1.1900000  31.9240000  10.2780000  -0.8780000
  31.5030000  11.0360000  -0.7730000  24.9000000   3.1840000 -10.1250000
  24.7220000   3.7740000 -10.8570000  25.3850000   2.4570000 -10.5150000
  24.9390000   3.1670000 -10.2680000  18.5050000   9.7740000 -11.5480000
  19.1020000  10.0300000 -12.2520000  18.8080000  10.2690000 -10.7860000
  18.6200000   9.8700000 -11.5410000  21.1860000  13.2810000  -7.7430000
  21.4450000  13.9740000  -8.3510000  20.3140000  13.5400000  -7.4440000
  21.1080000  13.4030000  -7.7830000  34.8740000  10.8710000 -10.7620000
  35.7270000  10.5300000 -11.0320000  34.8960000  10.8420000  -9.8060000
  34.9860000  10.8230000 -10.6750000  27.8040000   7.7820000  -2.8570000
  27.0500000   7.4520000  -3.3460000  27.6030000   7.5840000  -1.9430000
  27.6820000   7.7140000  -2.8030000  31.3540000   7.1050000  -0.7880000
  30.5700000   7.0660000  -0.2400000  31.9910000   6.5540000  -0.3340000
  31.3350000   7.0300000  -0.6600000  33.0200000  11.5420000 -15.5470000
  33.4160000  11.8830000 -14.7450000  33.5110000  11.9610000 -16.2540000
  33.1330000  11.6390000 -15.5350000  32.7490000   5.6280000  -3.5850000
  33.4420000   5.8220000  -2.9530000  32.1130000   6.3340000  -3.4670000
  32.7560000   5.7430000  -3.4890000  33.2140000  17.8980000  -6.1100000
  32.7410000  18.7310000  -6.1170000  32.6830000  17.3170000  -6.6540000
  33.0850000  17.9300000  -6.1800000  25.3260000   2.5690000 -24.1260000
  25.5540000   2.5410000 -23.1970000  24.6970000   1.8570000 -24.2390000
  25.2750000   2.4740000 -24.0210000  22.7250000  16.7550000 -23.8660000
  21.7710000  16.6870000 -23.8980000  22.9140000  17.0620000 -22.9800000
  22.6260000  16.7860000 -23.7570000  27.4900000  14.1990000 -30.7030000
  27.3160000  14.3600000 -29.7750000  26.7250000  13.7130000 -31.0090000
  27.3700000  14.1570000 -30.6230000  23.2420000   0.8550000 -24.6200000
  22.6820000   1.3030000 -23.9860000  23.0960000  -0.0760000 -24.4530000
  23.1520000   0.7930000 -24.5180000  24.0610000   9.0960000 -35.3720000
  23.9070000   9.5530000 -34.5450000  24.7730000   8.4860000 -35.1800000
  24.1320000   9.0760000 -35.2420000  27.4560000   4.3050000 -24.7670000
  26.8530000   3.6640000 -24.3920000  28.2450000   4.2360000 -24.2290000
  27.4800000   4.2150000 -24.6500000  27.9940000   0.7420000 -18.4890000
  28.8860000   0.5130000 -18.7530000  27.4720000   0.6210000 -19.2820000
  28.0420000   0.6980000 -18.6240000  34.2220000  15.2550000 -37.1860000
  33.3600000  15.5830000 -37.4420000  34.1260000  14.3030000 -37.1870000
  34.0990000  15.1750000 -37.2190000  20.9480000  15.3520000 -30.4090000
  20.9860000  16.2450000 -30.7530000  20.1490000  15.3310000 -29.8830000
  20.8510000  15.4640000 -30.3860000  25.6590000  17.1420000 -33.7200000
  24.8600000  16.6150000 -33.7100000  26.0030000  17.0390000 -34.6070000
  25.6010000  17.0610000 -33.8320000  29.8790000   4.1310000 -23.4990000
  30.0570000   3.2490000 -23.1730000  30.1980000   4.7110000 -22.8070000
  29.9430000   4.0920000 -23.3680000  27.5340000   3.1780000 -36.0110000
  27.2680000   2.7150000 -35.2160000  27.5500000   2.5010000 -36.6870000
  27.5020000   3.0320000 -35.9950000  27.7690000  10.3660000 -22.7270000
  27.6410000   9.5010000 -22.3380000  28.2120000  10.1910000 -23.5580000
  27.8090000  10.2330000 -22.7840000  30.6450000  11.3180000 -35.7080000
  31.4150000  11.3390000 -35.1410000  30.9640000  10.9510000 -36.5320000
  30.7840000  11.2740000 -35.7410000  18.8930000   4.6960000 -24.1700000
  19.1700000   5.2650000 -23.4520000  18.2910000   4.0730000 -23.7630000
  18.8520000   4.6890000 -24.0260000  34.3630000  12.5550000 -36.9610000
  34.4050000  12.4210000 -37.9080000  35.2490000  12.8220000 -36.7180000
  34.4820000  12.5720000 -37.0510000  19.7660000  11.0330000 -21.5770000
  18.8450000  10.8130000 -21.7170000  19.8460000  11.1400000 -20.6300000
  19.6580000  11.0180000 -21.4740000  34.7060000   2.9850000 -34.8730000
  34.8380000   2.8410000 -33.9360000  33.8380000   3.3840000 -34.9330000
  34.6120000   3.0170000 -34.7600000  31.3560000  14.7220000 -30.3720000
  31.5320000  15.5720000 -30.7750000  30.5970000  14.3850000 -30.8460000
  31.2820000  14.7880000 -30.4840000  31.1460000  18.0470000 -29.1200000
  31.7320000  18.7840000 -29.2950000  30.3640000  18.2330000 -29.6390000
  31.1210000  18.1650000 -29.2090000  23.4680000   5.3020000 -30.6000000
  23.0610000   5.3010000 -31.4670000  22.9820000   5.9650000 -30.1090000
  23.3540000   5.3870000 -30.6480000  21.5870000   1.6980000 -22.5820000
  21.7940000   2.5960000 -22.3250000  21.2310000   1.2970000 -21.7890000
  21.5680000   1.7610000 -22.4480000  22.8950000   2.4890000 -31.8820000
  22.1370000   2.4760000 -31.2970000  23.4270000   1.7450000 -31.6010000
  22.8660000   2.3920000 -31.7710000  29.9350000   6.1870000 -21.5830000
  30.5210000   6.5000000 -20.8940000  29.2090000   6.8120000 -21.5830000
  29.9170000   6.3070000 -21.4950000  27.5550000   6.6880000 -32.0510000
  26.7300000   6.6700000 -32.5360000  27.3040000   6.5020000 -31.1460000
  27.4170000   6.6620000 -31.9970000  24.6690000  16.3530000 -27.4340000
  24.4080000  15.9780000 -26.5930000  25.4000000  15.8080000 -27.7230000
  24.7290000  16.2350000 -27.3640000  22.9070000  14.5460000 -28.7190000
  22.1830000  14.8490000 -29.2670000  23.5010000  15.2960000 -28.6710000
  22.8910000  14.6810000 -28.7830000  19.4560000   4.7000000 -18.5290000
  19.2580000   4.7810000 -19.4610000  18.6620000   5.0030000 -18.0880000
  19.3290000   4.7490000 -18.5920000  22.3800000   8.3100000 -37.3810000
  21.7770000   9.0470000 -37.4770000  23.0090000   8.6000000 -36.7200000
  22.3830000   8.4410000 -37.3090000  26.8070000  16.7720000 -36.0880000
  27.2660000  15.9500000 -35.9160000  27.5050000  17.4120000 -36.2270000
  26.9550000  16.7490000 -36.0840000  25.5300000   7.2630000 -27.1060000
  26.4110000   7.5550000 -26.8740000  25.6160000   6.9290000 -27.9990000
  25.6540000   7.2580000 -27.1910000  19.4240000  13.7260000 -19.7720000
  18.6620000  14.2940000 -19.8890000  19.6290000  13.4160000 -20.6540000
  19.3520000  13.7590000 -19.9000000  21.4950000  15.0210000 -18.4350000
  21.9780000  15.5820000 -19.0420000  21.0520000  14.3850000 -18.9960000
  21.5000000  15.0120000 -18.5840000  25.1210000  16.7570000 -19.6370000
  25.6950000  16.6700000 -18.8760000  25.0790000  17.6990000 -19.7990000
  25.1890000  16.8660000 -19.5610000  29.8270000   3.0820000 -28.9220000
  28.8750000   3.0190000 -28.8510000  30.1550000   2.3540000 -28.3940000
  29.7470000   2.9810000 -28.8450000  34.9560000  11.0900000 -26.8000000
  35.3960000  11.5970000 -26.1170000  34.2840000  10.5930000 -26.3340000
  34.9270000  11.0910000 -26.6530000  25.4760000  10.6110000 -19.7360000
  25.3190000   9.6670000 -19.7720000  25.3870000  10.9030000 -20.6430000
  25.4440000  10.5270000 -19.8570000  29.6830000  13.9190000 -35.6340000
  29.9870000  13.0260000 -35.4780000  30.2100000  14.4590000 -35.0450000
  29.7890000  13.8740000 -35.5390000  32.3060000   4.4070000 -35.0580000
  32.4100000   4.7510000 -34.1710000  32.1760000   5.1830000 -35.6030000
  32.3030000   4.5500000 -35.0140000  34.9480000   5.2550000 -27.7310000
  35.8600000   5.2660000 -27.4380000  34.9480000   4.6700000 -28.4890000
  35.0650000   5.1810000 -27.7900000  32.7930000   9.5920000 -25.8800000
  31.9180000   9.3350000 -26.1700000  33.1450000   8.8090000 -25.4560000
  32.7260000   9.4590000 -25.8630000  22.5010000  16.5080000 -20.7220000
  22.2500000  17.4120000 -20.5310000  23.4070000  16.4430000 -20.4190000
  22.5860000  16.6160000 -20.6590000  24.5350000   1.5810000 -37.0710000
  24.8770000   1.5900000 -36.1770000  24.0500000   2.4030000 -37.1490000
  24.5170000   1.6880000 -36.9670000  19.7040000   1.4970000 -27.1670000
  20.5380000   1.9510000 -27.2910000  19.1160000   1.8960000 -27.8070000
  19.7360000   1.6060000 -27.2640000  20.8030000   0.6300000 -20.1550000
  19.9700000   0.2030000 -19.9540000  20.7700000   1.4570000 -19.6750000
  20.6920000   0.6810000 -20.0680000  27.1380000   6.0920000 -29.4170000
  27.2240000   5.3080000 -28.8740000  27.5780000   6.7790000 -28.9170000
  27.2050000   6.0800000 -29.2840000  34.2340000   0.2310000 -35.2030000
  34.3620000   1.1460000 -35.4550000  33.2850000   0.1360000 -35.1180000
  34.1290000   0.3360000 -35.2240000  20.2130000  18.3140000 -32.8980000
  19.4320000  18.1830000 -33.4360000  20.1830000  19.2390000 -32.6540000
  20.1090000  18.4160000 -32.9360000  30.2640000  14.1160000 -20.9470000
  30.8460000  13.9520000 -20.2060000  29.6700000  14.8020000 -20.6390000
  30.2620000  14.1830000 -20.8130000  26.5660000  14.5800000 -28.2080000
  26.0860000  13.7720000 -28.0310000  27.2950000  14.5660000 -27.5890000
  26.5980000  14.4750000 -28.1060000  29.3710000   5.4330000 -35.9410000
  28.7450000   4.7090000 -35.9170000  29.5890000   5.5920000 -35.0230000
  29.3190000   5.3610000 -35.8210000  26.1090000   7.0810000 -23.8210000
  25.2640000   6.7610000 -23.5040000  26.5820000   6.2900000 -24.0800000
  26.0610000   6.9390000 -23.8130000  23.0360000  12.2670000 -19.4870000
  23.8470000  11.7790000 -19.6290000  22.7670000  12.5440000 -20.3630000
  23.1050000  12.2400000 -19.6180000  21.9440000  16.8390000 -34.3640000
  21.3620000  17.3370000 -33.7910000  22.1730000  17.4500000 -35.0640000
  21.8990000  16.9810000 -34.3800000  25.2980000  11.3070000 -22.4590000
  26.1780000  10.9340000 -22.5110000  24.7600000  10.7260000 -22.9960000
  25.3420000  11.1850000 -22.5340000  34.2870000  15.0180000 -24.1020000
  33.9360000  14.9150000 -23.2170000  34.4350000  15.9600000 -24.1920000
  34.2610000  15.1250000 -24.0000000  33.6680000   4.1150000 -30.3520000
  34.3640000   3.7290000 -30.8850000  33.0580000   3.3930000 -30.1970000
  33.6780000   3.9730000 -30.4010000  31.7420000   9.5640000 -22.8100000
  31.1850000   9.1700000 -23.4820000  31.1660000  10.1740000 -22.3500000
  31.5970000   9.5920000 -22.8370000  35.6560000   8.8250000 -19.6160000
  34.8330000   9.1650000 -19.9650000  35.5120000   8.7690000 -18.6710000
  35.5330000   8.8610000 -19.5400000  29.5690000   5.5510000 -33.2770000
  28.7460000   5.8340000 -32.8810000  30.2470000   5.9370000 -32.7220000
  29.5510000   5.6360000 -33.1550000  22.5810000   9.1420000 -25.1840000
  22.2040000   9.0150000 -24.3140000  22.0180000   8.6310000 -25.7660000
  22.4610000   9.0610000 -25.1470000  31.5880000  10.6520000 -29.7290000
  32.1330000  11.1530000 -29.1220000  30.8940000  11.2590000 -29.9860000
  31.5690000  10.7930000 -29.6840000  19.5710000  12.2180000 -28.9080000
  19.9650000  12.1480000 -29.7780000  20.1830000  11.7630000 -28.3310000
  19.7000000  12.1510000 -28.9460000  34.2920000   7.8980000 -33.5360000
  34.2490000   8.5170000 -32.8060000  33.9260000   7.0870000 -33.1840000
  34.2400000   7.8740000 -33.3970000  29.0420000   8.7620000 -33.0570000
  28.3700000   8.0810000 -33.0270000  29.1210000   8.9790000 -33.9860000
  28.9660000   8.7030000 -33.1720000  22.7290000   3.6150000 -19.0940000
  22.5760000   3.8950000 -19.9960000  22.4920000   4.3750000 -18.5630000
  22.6790000   3.7480000 -19.1410000  30.2280000  17.7410000 -23.9390000
  29.6790000  17.6720000 -24.7190000  30.5920000  16.8640000 -23.8230000
  30.2050000  17.6200000 -24.0240000  24.6620000   7.7360000 -19.9880000
  24.5470000   7.4520000 -20.8950000  23.7710000   7.8390000 -19.6550000
  24.5330000   7.7130000 -20.0620000  23.7070000   6.0630000 -25.1420000
  23.1170000   5.3240000 -25.2940000  24.3190000   6.0350000 -25.8770000
  23.7100000   5.9650000 -25.2560000  25.0920000  12.2550000 -27.1100000
  25.0520000  11.3000000 -27.1470000  24.6370000  12.4830000 -26.3000000
  25.0290000  12.1620000 -27.0110000  33.0570000   8.9080000 -20.4280000
  32.3660000   8.2680000 -20.2600000  32.8490000   9.2640000 -21.2910000
  32.9420000   8.8710000 -20.5170000  18.6750000   8.0100000 -33.2910000
  19.3400000   8.6100000 -32.9530000  17.8430000   8.4440000 -33.1020000
  18.6540000   8.1420000 -33.2230000  21.0080000  12.4550000 -31.0890000
  21.6870000  12.1750000 -30.4750000  21.1060000  13.4050000 -31.1380000
  21.1070000  12.5410000 -31.0160000  26.4220000  11.1910000 -36.0020000
  26.0390000  10.8820000 -36.8230000  26.6610000  12.1020000 -36.1770000
  26.4040000  11.2680000 -36.1290000  20.6780000   2.6460000 -30.3240000
  20.4400000   1.8270000 -30.7580000  19.9170000   3.2140000 -30.4510000
  20.5500000   2.6140000 -30.3960000  25.2490000   1.4610000 -34.3200000
  25.4940000   0.5860000 -34.0190000  25.0340000   1.9380000 -33.5190000
  25.2530000   1.4100000 -34.1790000  30.4810000   3.2100000 -31.7820000
  30.1870000   3.9250000 -32.3460000  30.2100000   3.4710000 -30.9020000
  30.4090000   3.3350000 -31.7420000  28.9350000  14.8660000 -26.7000000
  28.8710000  14.3460000 -25.8980000  29.4800000  15.6150000 -26.4570000
  28.9960000  14.8950000 -26.5660000  34.4340000  13.7620000 -30.0810000
  33.5190000  13.7720000 -30.3640000  34.5560000  12.8940000 -29.6960000
  34.3320000  13.6520000 -30.0680000  22.0870000   5.7260000 -36.2860000
  21.1620000   5.4830000 -36.2480000  22.0830000   6.6460000 -36.5510000
  21.9690000   5.8130000 -36.3150000  24.0560000  10.0790000 -32.9970000
  24.8790000  10.5650000 -33.0350000  24.1070000   9.5840000 -32.1800000
  24.1680000  10.0780000 -32.8980000  20.7470000  17.9540000 -28.9210000
  20.2050000  18.3770000 -28.2540000  21.6460000  18.1510000 -28.6590000
  20.7920000  18.0340000 -28.8020000  26.3510000  11.7160000 -32.9950000
  25.8280000  12.4190000 -32.6090000  26.3630000  11.9120000 -33.9310000
  26.2860000  11.8310000 -33.0650000  33.3940000   6.5830000 -36.8310000
  33.8720000   6.2300000 -37.5800000  33.8960000   7.3550000 -36.5680000
  33.5190000   6.6370000 -36.8930000  22.2880000  12.0190000 -22.0010000
  22.2500000  12.3360000 -22.9030000  21.4160000  11.6600000 -21.8360000
  22.1710000  12.0130000 -22.0950000  26.1960000  13.7590000 -23.4260000
  25.4130000  14.1650000 -23.7950000  25.9080000  12.8880000 -23.1530000
  26.0590000  13.6990000 -23.4380000  19.9340000  15.7710000 -26.6830000
  20.5890000  16.1320000 -27.2800000  19.2560000  15.4160000 -27.2580000
  19.9310000  15.7720000 -26.8330000  35.2460000  -2.3370000 -27.4320000
  35.3920000  -1.9320000 -26.5770000  34.3010000  -2.2690000 -27.5710000
  35.1440000  -2.2770000 -27.3400000  25.2220000   9.7160000 -24.9470000
  25.5470000   8.9130000 -24.5400000  24.3530000   9.4840000 -25.2730000
  25.1520000   9.5840000 -24.9370000  20.8380000  10.6500000 -18.9780000
  21.6410000  11.1600000 -19.0880000  20.3880000  11.0680000 -18.2440000
  20.8830000  10.7690000 -18.8980000  31.3340000   7.7980000 -29.7180000
  31.8320000   7.5910000 -30.5090000  31.5180000   8.7230000 -29.5540000
  31.4210000   7.8900000 -29.7980000  25.9590000   6.5440000 -35.9770000
  25.4780000   5.7270000 -36.1080000  26.3930000   6.7030000 -36.8150000
  25.9530000   6.4600000 -36.1010000  19.9230000  11.5810000 -35.5190000
  20.6900000  11.2580000 -35.0440000  19.1810000  11.3420000 -34.9640000
  19.9260000  11.5090000 -35.3870000  19.2610000   5.3370000 -26.8230000
  20.0590000   4.9870000 -27.2180000  19.2410000   4.9570000 -25.9450000
  19.3600000   5.2430000 -26.7610000  28.6550000   8.3940000 -29.0950000
  28.2480000   9.1540000 -29.5110000  29.5170000   8.3290000 -29.5050000
  28.7130000   8.4830000 -29.2010000  33.1920000   9.6330000 -31.6130000
  33.8660000  10.0450000 -31.0730000  32.3820000  10.0790000 -31.3670000
  33.1750000   9.7430000 -31.5130000  21.3460000  10.1240000 -28.1100000
  22.3030000  10.1080000 -28.1290000  21.1010000   9.3100000 -27.6700000
  21.4370000  10.0180000 -28.0560000  31.6490000   4.1340000 -25.5710000
  31.1950000   4.5760000 -26.2890000  31.1070000   4.3090000 -24.8020000
  31.5220000   4.2130000 -25.5650000  30.1880000   5.6100000 -27.7610000
  30.8140000   6.0600000 -28.3280000  30.0460000   4.7630000 -28.1850000
  30.2500000   5.5590000 -27.8880000  28.7230000  13.4870000 -24.2620000
  29.1160000  14.3080000 -23.9660000  27.8100000  13.5420000 -23.9800000
  28.6570000  13.5990000 -24.1880000  30.2120000   2.3550000 -35.0050000
  29.4530000   2.6030000 -35.5330000  30.7670000   3.1350000 -35.0040000
  30.1860000   2.4870000 -35.0720000  22.7470000   5.6480000 -33.2880000
  22.6570000   5.3770000 -34.2010000  21.8490000   5.8050000 -32.9950000
  22.6200000   5.6340000 -33.3670000  32.3340000   1.5390000 -30.4920000
  31.6720000   1.9450000 -31.0520000  33.0290000   1.2760000 -31.0950000
  32.3380000   1.5580000 -30.6410000  33.9470000   6.7710000 -25.1130000
  33.6820000   6.1190000 -24.4630000  34.1660000   6.2580000 -25.8910000
  33.9410000   6.6220000 -25.1290000  24.6930000   8.5640000 -30.8880000
  24.8810000   7.8120000 -31.4500000  25.5490000   8.9550000 -30.7180000
  24.8260000   8.5180000 -30.9380000  26.3490000   3.4240000 -21.6480000
  27.2710000   3.5000000 -21.4040000  25.8970000   4.0410000 -21.0730000
  26.4090000   3.5120000 -21.5440000  23.3400000   0.4340000 -28.7290000
  23.5110000   1.3550000 -28.5300000  23.9060000  -0.0500000 -28.1280000
  23.4340000   0.4900000 -28.6270000  27.1430000  13.7710000 -36.6050000
  27.9870000  13.7330000 -36.1540000  27.3660000  13.9760000 -37.5130000
  27.2800000  13.7920000 -36.6630000  24.1940000   9.5610000 -28.3360000
  24.4510000   9.1430000 -29.1580000  24.2780000   8.8690000 -27.6800000
  24.2380000   9.4190000 -28.3570000  31.5060000  14.0160000 -27.8770000
  31.6040000  14.2630000 -28.7970000  30.6520000  14.3660000 -27.6250000
  31.4090000  14.0920000 -27.9620000  28.8960000  18.4300000 -30.5380000
  28.7110000  17.6030000 -30.9840000  28.5840000  19.1030000 -31.1430000
  28.8320000  18.4100000 -30.6730000  35.0000000   0.3000000 -18.9130000
  34.4590000  -0.2150000 -18.3150000  34.5360000   1.1330000 -19.0000000
  34.8720000   0.3410000 -18.8470000  30.4840000  17.6650000 -37.4480000
  30.6420000  18.5040000 -37.8810000  30.7460000  17.8120000 -36.5390000
  30.5380000  17.7910000 -37.3870000  32.5940000  16.4420000 -27.3380000
  32.0500000  17.0420000 -27.8490000  32.2030000  15.5810000 -27.4840000
  32.4750000  16.4090000 -27.4220000  26.6860000  18.8100000 -28.3650000
  26.6520000  18.1230000 -27.7000000  27.1620000  18.4150000 -29.0950000
  26.7420000  18.6720000 -28.3730000  28.5650000   9.5380000 -35.6770000
  29.2950000  10.1580000 -35.6880000  27.7830000  10.0890000 -35.7080000
  28.5580000   9.6880000 -35.6830000  28.1970000   6.9190000 -26.5610000
  27.7480000   6.1650000 -26.1790000  28.9190000   6.5390000 -27.0610000
  28.2320000   6.7740000 -26.5760000  29.7320000  11.0430000 -24.8490000
  29.4560000  11.8670000 -24.4470000  30.6830000  11.0300000 -24.7400000
  29.8190000  11.1470000 -24.7840000  25.2200000   3.6560000 -32.5780000
  25.0720000   4.5990000 -32.6560000  24.4280000   3.3240000 -32.1540000
  25.1000000   3.7340000 -32.5340000  29.0880000  18.2660000 -26.6000000
  29.8780000  18.8040000 -26.6540000  28.4880000  18.6580000 -27.2340000
  29.1120000  18.3850000 -26.6880000  28.8710000   4.0000000 -20.1590000
  28.4050000   4.5980000 -19.5750000  29.4660000   4.5640000 -20.6540000
  28.8870000   4.1480000 -20.1480000  24.4760000   4.1450000 -35.9830000
  23.5590000   3.9300000 -35.8170000  24.9510000   3.7570000 -35.2480000
  24.4190000   4.0680000 -35.8680000  21.1180000   8.8910000 -22.7120000
  20.4390000   9.5300000 -22.4920000  20.7090000   8.0420000 -22.5490000
  20.9780000   8.8640000 -22.6630000  32.0780000  16.8960000 -31.7480000
  31.7100000  17.4770000 -31.0830000  32.9690000  17.2190000 -31.8820000
  32.1450000  17.0120000 -31.6800000  19.2660000   1.8000000 -24.1300000
  20.1280000   1.7610000 -23.7160000  19.4520000   1.9500000 -25.0570000
  19.4000000   1.8140000 -24.1960000  30.1830000   9.3330000 -26.7630000
  29.9150000   9.9760000 -26.1060000  29.3840000   9.1510000 -27.2590000
  30.0460000   9.3920000 -26.7430000  18.7250000   6.9710000 -20.1430000
  18.1250000   7.7040000 -20.0020000  19.2720000   6.9540000 -19.3570000
  18.7180000   7.0630000 -20.0240000  20.0810000   5.8720000 -32.1000000
  20.4810000   6.4570000 -31.4560000  19.6170000   6.4570000 -32.6990000
  20.0730000   6.0220000 -32.0940000  30.1600000   7.6670000 -24.2010000
  29.9970000   7.9760000 -25.0920000  29.2990000   7.4030000 -23.8780000
  30.0290000   7.6730000 -24.2730000  30.3820000   1.8880000 -20.0630000
  30.3790000   1.5980000 -20.9750000  29.7100000   2.5690000 -20.0260000
  30.2950000   1.9380000 -20.1750000  22.0410000   0.5510000 -36.0550000
  22.0420000   1.2930000 -35.4510000  22.5450000   0.8550000 -36.8090000
  22.1060000   0.6850000 -36.0740000  22.9570000  12.5870000 -35.7710000
  23.0430000  12.5360000 -36.7230000  22.4040000  13.3550000 -35.6220000
  22.8970000  12.6790000 -35.8740000  30.0920000  11.3300000 -21.6650000
  29.2740000  11.1740000 -22.1360000  30.1400000  12.2820000 -21.5760000
  29.9940000  11.4320000 -21.7140000  34.4420000   6.0260000 -20.4340000
  35.1550000   5.3940000 -20.3390000  34.8820000   6.8630000 -20.5800000
  34.5890000   6.0520000 -20.4410000  20.4710000   7.8080000 -26.9120000
  19.6920000   8.3140000 -26.6810000  20.2090000   6.8950000 -26.7890000
  20.3380000   7.7560000 -26.8670000  23.5670000  11.9650000 -29.8060000
  23.4800000  12.7450000 -29.2570000  23.6390000  11.2410000 -29.1830000
  23.5650000  11.9720000 -29.6560000  19.1980000   3.0490000 -34.6010000
  19.1410000   2.7950000 -35.5220000  18.6500000   3.8310000 -34.5330000
  19.1200000   3.1170000 -34.7100000  24.7510000   0.6220000 -31.1700000
  24.3460000   0.2910000 -30.3680000  24.8580000  -0.1520000 -31.7220000
  24.7130000   0.4810000 -31.1380000  35.8360000  16.0810000 -31.4300000
  35.9060000  15.4520000 -30.7130000  35.9020000  15.5490000 -32.2230000
  35.8530000  15.9330000 -31.4400000  25.2940000   6.6680000 -33.2840000
  25.6670000   6.6030000 -34.1630000  24.3890000   6.3720000 -33.3850000
  25.2260000   6.6210000 -33.4090000  24.9930000  13.8250000 -34.8500000
  24.2610000  13.3360000 -35.2260000  25.6530000  13.8380000 -35.5420000
  24.9830000  13.7640000 -34.9860000  27.4390000   3.5650000 -30.8990000
  26.5870000   3.4270000 -31.3110000  27.4890000   4.5120000 -30.7630000
  27.3370000   3.6690000 -30.9340000  19.9390000  17.1700000 -24.2790000
  19.6460000  16.8970000 -25.1490000  19.6310000  18.0720000 -24.1950000
  19.8620000  17.2500000 -24.3800000  22.3110000   4.2330000 -21.7080000
  23.1020000   4.2660000 -22.2450000  21.9510000   5.1190000 -21.7560000
  22.3660000   4.3500000 -21.7830000  28.4840000   7.2360000 -37.6600000
  28.4650000   7.8860000 -36.9580000  28.8390000   6.4480000 -37.2480000
  28.5270000   7.2190000 -37.5180000  33.4670000   2.4860000 -20.2390000
  33.5280000   2.1390000 -21.1290000  32.5260000   2.5340000 -20.0650000
  33.3540000   2.4480000 -20.3310000  23.8540000  14.5340000 -24.8810000
  23.2840000  15.2210000 -24.5340000  23.4020000  13.7180000 -24.6670000
  23.7230000  14.5180000 -24.8090000  30.4460000  16.1150000 -33.7900000
  29.7610000  16.0430000 -33.1250000  31.2440000  16.2930000 -33.2930000
  30.4600000  16.1280000 -33.6410000  28.1570000   1.7390000 -32.8080000
  27.9320000   2.5240000 -32.3090000  29.0560000   1.8910000 -33.1000000
  28.2440000   1.8590000 -32.7810000  33.5840000   1.4590000 -27.9380000
  34.4550000   1.0660000 -27.8810000  33.4850000   1.6900000 -28.8610000
  33.6830000   1.4380000 -28.0490000  30.4920000   1.7260000 -22.8040000
  30.2320000   0.9500000 -23.3010000  31.4480000   1.7310000 -22.8520000
  30.5810000   1.6270000 -22.8740000  33.6090000   5.3240000 -32.6900000
  33.3880000   5.0740000 -31.7920000  34.4250000   4.8580000 -32.8730000
  33.6850000   5.2320000 -32.5980000  31.4550000  15.0870000 -37.5430000
  31.0550000  15.9550000 -37.4930000  30.9790000  14.5660000 -36.8960000
  31.3430000  15.1320000 -37.4540000  27.4120000   3.8740000 -27.5230000
  26.5610000   3.4430000 -27.6100000  27.5110000   4.0210000 -26.5820000
  27.3150000   3.8380000 -27.4140000  26.0430000   0.8950000 -20.3720000
  25.4900000   1.2060000 -19.6560000  26.1040000   1.6410000 -20.9690000
  25.9800000   1.0300000 -20.3570000  24.8340000  13.4080000 -31.6870000
  24.1980000  12.9530000 -31.1360000  24.3460000  14.1420000 -32.0600000
  24.6910000  13.4440000 -31.6640000  30.7120000  15.0790000 -23.4820000
  30.5090000  14.7690000 -22.6000000  31.2260000  14.3710000 -23.8720000
  30.7520000  14.9480000 -23.4190000  33.3570000  12.6810000 -20.8350000
  32.7170000  12.1480000 -20.3630000  33.3190000  12.3580000 -21.7360000
  33.2700000  12.5710000 -20.8900000  27.1240000  15.0490000 -20.7000000
  26.7370000  14.6840000 -21.4960000  26.4760000  15.6780000 -20.3850000
  26.9910000  15.0820000 -20.7610000  19.4840000  14.4030000 -23.3310000
  19.1020000  15.2460000 -23.0870000  20.3080000  14.6290000 -23.7620000
  19.5400000  14.5400000 -23.3550000  21.3870000   4.0290000 -27.9090000
  21.2930000   3.5620000 -28.7390000  22.2100000   3.7060000 -27.5440000
  21.4800000   3.9280000 -27.9680000  35.0920000  12.5400000 -32.5860000
  35.1140000  12.6560000 -31.6360000  35.2650000  13.4130000 -32.9370000
  35.1170000  12.6670000 -32.5090000  34.4670000  18.4800000 -32.2790000
  34.2030000  18.4450000 -33.1980000  35.0890000  17.7590000 -32.1800000
  34.5130000  18.3830000 -32.3840000  31.6410000  18.4760000 -34.7680000
  31.1250000  17.7910000 -34.3420000  31.1580000  19.2830000 -34.5940000
  31.5130000  18.4910000 -34.6910000  23.5500000   3.2870000 -26.6530000
  24.0020000   2.7080000 -26.0390000  24.1130000   3.3020000 -27.4260000
  23.6800000   3.2150000 -26.6730000  20.1320000   6.3870000 -22.3840000
  19.5660000   6.7480000 -23.0660000  19.6360000   6.5030000 -21.5740000
  19.9960000   6.4480000 -22.3680000  31.3780000  20.0190000 -26.4670000
  32.1530000  19.8630000 -27.0060000  31.3470000  20.9700000 -26.3610000
  31.4730000  20.1210000 -26.5220000  27.9480000  16.4310000 -32.2380000
  27.7100000  15.6180000 -31.7940000  27.1430000  16.7090000 -32.6750000
  27.8150000  16.3630000 -32.2370000  33.1410000  15.8510000 -20.9310000
  33.4110000  14.9470000 -20.7710000  32.1890000  15.8380000 -20.8300000
  33.0530000  15.7340000 -20.8970000  33.4510000  11.5570000 -23.2340000
  32.8410000  10.8210000 -23.1780000  33.0190000  12.1810000 -23.8170000
  33.3180000  11.5420000 -23.3010000  22.5490000  12.1450000 -24.8090000
  22.0880000  12.4890000 -25.5740000  22.6300000  11.2070000 -24.9810000
  22.5000000  12.0690000 -24.9290000  20.7450000   9.7860000 -32.6240000
  21.7010000   9.8180000 -32.5970000  20.4740000  10.7030000 -32.5860000
  20.8330000   9.9070000 -32.6160000  25.5850000   5.2450000 -19.6810000
  24.8200000   4.8480000 -19.2630000  25.3310000   6.1560000 -19.8290000
  25.4540000   5.3110000 -19.6460000  22.1040000   3.0760000 -34.6530000
  22.4120000   3.1410000 -33.7490000  21.1860000   2.8180000 -34.5740000
  22.0260000   3.0510000 -34.5270000  31.4130000   7.3370000 -32.2690000
  32.0330000   7.7810000 -32.8480000  30.6030000   7.8410000 -32.3540000
  31.3890000   7.4590000 -32.3540000  18.0330000  13.3890000 -36.3080000
  18.6610000  12.8660000 -35.8090000  18.5270000  13.6950000 -37.0690000
  18.1770000  13.3610000 -36.3410000  23.7050000  15.4730000 -33.0370000
  23.0050000  15.8710000 -33.5540000  24.1370000  14.8700000 -33.6430000
  23.6710000  15.4470000 -33.1810000  32.3060000  13.4160000 -25.2150000
  32.1330000  13.3390000 -26.1530000  33.0890000  13.9630000 -25.1600000
  32.3840000  13.4760000 -25.3280000  27.1240000   9.8000000 -30.8960000
  27.6380000   9.2000000 -31.4360000  26.8500000  10.4900000 -31.5000000
  27.1540000   9.8110000 -31.0420000  34.1520000  18.3670000 -21.6050000
  34.5610000  18.5390000 -20.7570000  33.8830000  17.4500000 -21.5600000
  34.1700000  18.2720000 -21.4910000  33.1660000   3.0290000 -23.3370000
  32.8790000   3.8550000 -22.9460000  32.9430000   3.1130000 -24.2640000
  33.1000000   3.1460000 -23.4050000  19.6110000  17.1550000 -36.8500000
  20.1680000  16.3960000 -36.6780000  20.1790000  17.9090000 -36.6940000
  19.7550000  17.1540000 -36.8080000  31.5600000  11.1410000 -19.5430000
  30.7490000  11.1790000 -20.0500000  31.9240000  10.2780000 -19.7380000
  31.5030000  11.0360000 -19.6330000  24.9000000   3.1840000 -28.9850000
  24.7220000   3.7740000 -29.7170000  25.3850000   2.4570000 -29.3750000
  24.9390000   3.1670000 -29.1280000  18.5050000   9.7740000 -30.4080000
  19.1020000  10.0300000 -31.1120000  18.8080000  10.2690000 -29.6460000
  18.6200000   9.8700000 -30.4010000  21.1860000  13.2810000 -26.6030000
  21.4450000  13.9740000 -27.2110000  20.3140000  13.5400000 -26.3040000
  21.1080000  13.4030000 -26.6430000  34.8740000  10.8710000 -29.6220000
  35.7270000  10.5300000 -29.8920000  34.8960000  10.8420000 -28.6660000
  34.9860000  10.8230000 -29.5350000  27.8040000   7.7820000 -21.7170000
  27.0500000   7.4520000 -22.2060000  27.6030000   7.5840000 -20.8030000
  27.6820000   7.7140000 -21.6630000  31.3540000   7.1050000 -19.6480000
  30.5700000   7.0660000 -19.1000000  31.9910000   6.5540000 -19.1940000
  31.3350000   7.0300000 -19.5200000  33.0200000  11.5420000 -34.4070000
  33.4160000  11.8830000 -33.6050000  33.5110000  11.9610000 -35.1140000
  33.1330000  11.6390000 -34.3950000  32.7490000   5.6280000 -22.4450000
  33.4420000   5.8220000 -21.8130000  32.1130000   6.3340000 -22.3270000
  32.7560000   5.7430000 -22.3490000  33.2140000  17.8980000 -24.9700000
  32.7410000  18.7310000 -24.9770000  32.6830000  17.3170000 -25.5140000
  33.0850000  17.9300000 -25.0400000  25.3260000   2.5690000 -42.9860000
  25.5540000   2.5410000 -42.0570000  24.6970000   1.8570000 -43.0990000
  25.2750000   2.4740000 -42.8810000  22.7250000  16.7550000 -42.7260000
  21.7710000  16.6870000 -42.7580000  22.9140000  17.0620000 -41.8400000
  22.6260000  16.7860000 -42.6170000  23.2420000   0.8550000 -43.4800000
  22.6820000   1.3030000 -42.8460000  23.0960000  -0.0760000 -43.3130000
  23.1520000   0.7930000 -43.3780000  27.4560000   4.3050000 -43.6270000
  26.8530000   3.6640000 -43.2520000  28.2450000   4.2360000 -43.0890000
  27.4800000   4.2150000 -43.5100000  27.9940000   0.7420000 -37.3490000
  28.8860000   0.5130000 -37.6130000  27.4720000   0.6210000 -38.1420000
  28.0420000   0.6980000 -37.4840000  29.8790000   4.1310000 -42.3580000
  30.0570000   3.2490000 -42.0330000  30.1980000   4.7110000 -41.6670000
  29.9430000   4.0920000 -42.2280000  27.7690000  10.3660000 -41.5870000
  27.6410000   9.5010000 -41.1980000  28.2120000  10.1910000 -42.4180000
  27.8090000  10.2330000 -41.6440000  18.8930000   4.6960000 -43.0300000
  19.1700000   5.2650000 -42.3120000  18.2910000   4.0730000 -42.6230000
  18.8520000   4.6890000 -42.8860000  19.7660000  11.0330000 -40.4370000
  18.8450000  10.8130000 -40.5770000  19.8460000  11.1400000 -39.4900000
  19.6580000  11.0180000 -40.3340000  31.1460000  18.0470000 -47.9800000
  31.7320000  18.7840000 -48.1550000  30.3640000  18.2330000 -48.4990000
  31.1210000  18.1650000 -48.0690000  21.5870000   1.6980000 -41.4420000
  21.7940000   2.5960000 -41.1850000  21.2310000   1.2970000 -40.6490000
  21.5680000   1.7610000 -41.3080000  29.9350000   6.1870000 -40.4430000
  30.5210000   6.5000000 -39.7540000  29.2090000   6.8120000 -40.4430000
  29.9170000   6.3070000 -40.3550000  24.6690000  16.3530000 -46.2940000
  24.4080000  15.9780000 -45.4530000  25.4000000  15.8080000 -46.5830000
  24.7290000  16.2350000 -46.2240000  22.9070000  14.5460000 -47.5790000
  22.1830000  14.8490000 -48.1270000  23.5010000  15.2960000 -47.5310000
  22.8910000  14.6810000 -47.6430000  19.4560000   4.7000000 -37.3890000
  19.2580000   4.7810000 -38.3210000  18.6620000   5.0030000 -36.9470000
  19.3290000   4.7490000 -37.4520000  25.5300000   7.2630000 -45.9660000
  26.4110000   7.5550000 -45.7330000  25.6160000   6.9290000 -46.8580000
  25.6540000   7.2580000 -46.0510000  19.4240000  13.7260000 -38.6320000
  18.6620000  14.2940000 -38.7490000  19.6290000  13.4160000 -39.5140000
  19.3520000  13.7590000 -38.7600000  21.4950000  15.0210000 -37.2950000
  21.9780000  15.5820000 -37.9020000  21.0520000  14.3850000 -37.8560000
  21.5000000  15.0120000 -37.4440000  25.1210000  16.7570000 -38.4970000
  25.6950000  16.6700000 -37.7360000  25.0790000  17.6990000 -38.6590000
  25.1890000  16.8660000 -38.4210000  29.8270000   3.0820000 -47.7820000
  28.8750000   3.0190000 -47.7110000  30.1550000   2.3540000 -47.2540000
  29.7470000   2.9810000 -47.7050000  34.9560000  11.0900000 -45.6600000
  35.3960000  11.5970000 -44.9770000  34.2840000  10.5930000 -45.1940000
  34.9270000  11.0910000 -45.5130000  25.4760000  10.6110000 -38.5960000
  25.3190000   9.6670000 -38.6320000  25.3870000  10.9030000 -39.5030000
  25.4440000  10.5270000 -38.7170000  34.9480000   5.2550000 -46.5910000
  35.8600000   5.2660000 -46.2980000  34.9480000   4.6700000 -47.3490000
  35.0650000   5.1810000 -46.6500000  32.7930000   9.5920000 -44.7400000
  31.9180000   9.3350000 -45.0300000  33.1450000   8.8090000 -44.3150000
  32.7260000   9.4590000 -44.7230000  22.5010000  16.5080000 -39.5820000
  22.2500000  17.4120000 -39.3910000  23.4070000  16.4430000 -39.2790000
  22.5860000  16.6160000 -39.5190000  19.7040000   1.4970000 -46.0270000
  20.5380000   1.9510000 -46.1510000  19.1160000   1.8960000 -46.6670000
  19.7360000   1.6060000 -46.1240000  20.8030000   0.6300000 -39.0150000
  19.9700000   0.2030000 -38.8140000  20.7700000   1.4570000 -38.5350000
  20.6920000   0.6810000 -38.9280000  27.1380000   6.0920000 -48.2770000
  27.2240000   5.3080000 -47.7330000  27.5780000   6.7790000 -47.7770000
  27.2050000   6.0800000 -48.1440000  30.2640000  14.1160000 -39.8070000
  30.8460000  13.9520000 -39.0660000  29.6700000  14.8020000 -39.4990000
  30.2620000  14.1830000 -39.6730000  26.5660000  14.5800000 -47.0680000
  26.0860000  13.7720000 -46.8910000  27.2950000  14.5660000 -46.4490000
  26.5980000  14.4750000 -46.9660000  23.0360000  12.2670000 -38.3470000
  23.8470000  11.7790000 -38.4890000  22.7670000  12.5440000 -39.2230000
  23.1050000  12.2400000 -38.4780000  25.2980000  11.3070000 -41.3190000
  26.1780000  10.9340000 -41.3710000  24.7600000  10.7260000 -41.8560000
  25.3420000  11.1850000 -41.3940000  34.2870000  15.0180000 -42.9620000
  33.9360000  14.9150000 -42.0770000  34.4350000  15.9600000 -43.0520000
  34.2610000  15.1250000 -42.8600000  31.7420000   9.5640000 -41.6700000
  31.1850000   9.1700000 -42.3420000  31.1660000  10.1740000 -41.2100000
  31.5970000   9.5920000 -41.6970000  35.6560000   8.8250000 -38.4760000
  34.8330000   9.1650000 -38.8250000  35.5120000   8.7690000 -37.5310000
  35.5330000   8.8610000 -38.4000000  22.5810000   9.1420000 -44.0440000
  22.2040000   9.0150000 -43.1740000  22.0180000   8.6310000 -44.6260000
  22.4610000   9.0610000 -44.0070000  31.5880000  10.6520000 -48.5890000
  32.1330000  11.1530000 -47.9820000  30.8940000  11.2590000 -48.8460000
  31.5690000  10.7930000 -48.5440000  19.5710000  12.2180000 -47.7680000
  19.9650000  12.1480000 -48.6380000  20.1830000  11.7630000 -47.1900000
  19.7000000  12.1510000 -47.8060000  22.7290000   3.6150000 -37.9530000
  22.5760000   3.8950000 -38.8560000  22.4920000   4.3750000 -37.4230000
  22.6790000   3.7480000 -38.0010000  30.2280000  17.7410000 -42.7990000
  29.6790000  17.6720000 -43.5790000  30.5920000  16.8640000 -42.6830000
  30.2050000  17.6200000 -42.8840000  24.6620000   7.7360000 -38.8480000
  24.5470000   7.4520000 -39.7550000  23.7710000   7.8390000 -38.5150000
  24.5330000   7.7130000 -38.9220000  23.7070000   6.0630000 -44.0020000
  23.1170000   5.3240000 -44.1540000  24.3190000   6.0350000 -44.7370000
  23.7100000   5.9650000 -44.1160000  25.0920000  12.2550000 -45.9700000
  25.0520000  11.3000000 -46.0070000  24.6370000  12.4830000 -45.1600000
  25.0290000  12.1620000 -45.8710000  33.0570000   8.9080000 -39.2880000
  32.3660000   8.2680000 -39.1200000  32.8490000   9.2640000 -40.1510000
  32.9420000   8.8710000 -39.3770000  28.9350000  14.8660000 -45.5600000
  28.8710000  14.3460000 -44.7580000  29.4800000  15.6150000 -45.3170000
  28.9960000  14.8950000 -45.4260000  20.7470000  17.9540000 -47.7810000
  20.2050000  18.3770000 -47.1140000  21.6460000  18.1510000 -47.5190000
  20.7920000  18.0340000 -47.6620000  22.2880000  12.0190000 -40.8610000
  22.2500000  12.3360000 -41.7630000  21.4160000  11.6600000 -40.6960000
  22.1710000  12.0130000 -40.9550000  26.1960000  13.7590000 -42.2860000
  25.4130000  14.1650000 -42.6550000  25.9080000  12.8880000 -42.0130000
  26.0590000  13.6990000 -42.2980000  19.9340000  15.7710000 -45.5430000
  20.5890000  16.1320000 -46.1400000  19.2560000  15.4160000 -46.1180000
  19.9310000  15.7720000 -45.6930000  35.2460000  -2.3370000 -46.2920000
  35.3920000  -1.9320000 -45.4370000  34.3010000  -2.2690000 -46.4310000
  35.1440000  -2.2770000 -46.2000000  25.2220000   9.7160000 -43.8070000
  25.5470000   8.9130000 -43.4000000  24.3530000   9.4840000 -44.1330000
  25.1520000   9.5840000 -43.7970000  20.8380000  10.6500000 -37.8380000
  21.6410000  11.1600000 -37.9470000  20.3880000  11.0680000 -37.1040000
  20.8830000  10.7690000 -37.7580000  19.2610000   5.3370000 -45.6830000
  20.0590000   4.9870000 -46.0780000  19.2410000   4.9570000 -44.8050000
  19.3600000   5.2430000 -45.6210000  28.6550000   8.3940000 -47.9550000
  28.2480000   9.1540000 -48.3710000  29.5170000   8.3290000 -48.3650000
  28.7130000   8.4830000 -48.0610000  21.3460000  10.1240000 -46.9700000
  22.3030000  10.1080000 -46.9890000  21.1010000   9.3100000 -46.5300000
  21.4370000  10.0180000 -46.9160000  31.6490000   4.1340000 -44.4310000
  31.1950000   4.5760000 -45.1490000  31.1070000   4.3090000 -43.6620000
  31.5220000   4.2130000 -44.4250000  30.1880000   5.6100000 -46.6210000
  30.8140000   6.0600000 -47.1880000  30.0460000   4.7630000 -47.0450000
  30.2500000   5.5590000 -46.7480000  28.7230000  13.4870000 -43.1220000
  29.1160000  14.3080000 -42.8260000  27.8100000  13.5420000 -42.8400000
  28.6570000  13.5990000 -43.0480000  33.9470000   6.7710000 -43.9730000
  33.6820000   6.1190000 -43.3230000  34.1660000   6.2580000 -44.7510000
  33.9410000   6.6220000 -43.9890000  26.3490000   3.4240000 -40.5080000
  27.2710000   3.5000000 -40.2640000  25.8970000   4.0410000 -39.9330000
  26.4090000   3.5120000 -40.4040000  23.3400000   0.4340000 -47.5890000
  23.5110000   1.3550000 -47.3900000  23.9060000  -0.0500000 -46.9880000
  23.4340000   0.4900000 -47.4870000  24.1940000   9.5610000 -47.1960000
  24.4510000   9.1430000 -48.0180000  24.2780000   8.8690000 -46.5400000
  24.2380000   9.4190000 -47.2170000  31.5060000  14.0160000 -46.7370000
  31.6040000  14.2630000 -47.6570000  30.6520000  14.3660000 -46.4850000
  31.4090000  14.0920000 -46.8220000  35.0000000   0.3000000 -37.7730000
  34.4590000  -0.2150000 -37.1750000  34.5360000   1.1330000 -37.8600000
  34.8720000   0.3410000 -37.7070000  32.5940000  16.4420000 -46.1980000
  32.0500000  17.0420000 -46.7090000  32.2030000  15.5810000 -46.3440000
  32.4750000  16.4090000 -46.2820000  26.6860000  18.8100000 -47.2250000
  26.6520000  18.1230000 -46.5600000  27.1620000  18.4150000 -47.9550000
  26.7420000  18.6720000 -47.2330000  28.1970000   6.9190000 -45.4210000
  27.7480000   6.1650000 -45.0390000  28.9190000   6.5390000 -45.9210000
  28.2320000   6.7740000 -45.4360000  29.7320000  11.0430000 -43.7090000
  29.4560000  11.8670000 -43.3070000  30.6830000  11.0300000 -43.6000000
  29.8190000  11.1470000 -43.6440000  29.0880000  18.2660000 -45.4600000
  29.8780000  18.8040000 -45.5140000  28.4880000  18.6580000 -46.0940000
  29.1120000  18.3850000 -45.5480000  28.8710000   4.0000000 -39.0190000
  28.4050000   4.5980000 -38.4350000  29.4660000   4.5640000 -39.5140000
  28.8870000   4.1480000 -39.0080000  21.1180000   8.8910000 -41.5720000
  20.4390000   9.5300000 -41.3520000  20.7090000   8.0420000 -41.4090000
  20.9780000   8.8640000 -41.5230000  19.2660000   1.8000000 -42.9900000
  20.1280000   1.7610000 -42.5760000  19.4520000   1.9500000 -43.9170000
  19.4000000   1.8140000 -43.0560000  30.1830000   9.3330000 -45.6230000
  29.9150000   9.9760000 -44.9650000  29.3840000   9.1510000 -46.1190000
  30.0460000   9.3920000 -45.6030000  18.7250000   6.9710000 -39.0030000
  18.1250000   7.7040000 -38.8620000  19.2720000   6.9540000 -38.2170000
  18.7180000   7.0630000 -38.8840000  30.1600000   7.6670000 -43.0610000
  29.9970000   7.9760000 -43.9520000  29.2990000   7.4030000 -42.7380000
  30.0290000   7.6730000 -43.1330000  30.3820000   1.8880000 -38.9230000
  30.3790000   1.5980000 -39.8350000  29.7100000   2.5690000 -38.8860000
  30.2950000   1.9380000 -39.0350000  30.0920000  11.3300000 -40.5250000
  29.2740000  11.1740000 -40.9960000  30.1400000  12.2820000 -40.4360000
  29.9940000  11.4320000 -40.5740000  34.4420000   6.0260000 -39.2940000
  35.1550000   5.3940000 -39.1990000  34.8820000   6.8630000 -39.4400000
  34.5890000   6.0520000 -39.3010000  20.4710000   7.8080000 -45.7720000
  19.6920000   8.3140000 -45.5410000  20.2090000   6.8950000 -45.6490000
  20.3380000   7.7560000 -45.7270000  23.5670000  11.9650000 -48.6660000
  23.4800000  12.7450000 -48.1170000  23.6390000  11.2410000 -48.0430000
  23.5650000  11.9720000 -48.5160000  23.6690000   7.1060000 -41.4820000
  23.5780000   6.9860000 -42.4270000  22.9450000   7.6840000 -41.2440000
  23.5650000   7.1650000 -41.5730000  19.9390000  17.1700000 -43.1390000
  19.6460000  16.8970000 -44.0090000  19.6310000  18.0720000 -43.0550000
  19.8620000  17.2500000 -43.2400000  22.3110000   4.2330000 -40.5680000
  23.1020000   4.2660000 -41.1050000  21.9510000   5.1190000 -40.6160000
  22.3660000   4.3500000 -40.6430000  33.4670000   2.4860000 -39.0990000
  33.5280000   2.1390000 -39.9890000  32.5260000   2.5340000 -38.9250000
  33.3540000   2.4480000 -39.1910000  23.8540000  14.5340000 -43.7410000
  23.2840000  15.2210000 -43.3940000  23.4020000  13.7180000 -43.5270000
  23.7230000  14.5180000 -43.6690000  33.5840000   1.4590000 -46.7980000
  34.4550000   1.0660000 -46.7410000  33.4850000   1.6900000 -47.7210000
  33.6830000   1.4380000 -46.9090000  30.4920000   1.7260000 -41.6640000
  30.2320000   0.9500000 -42.1610000  31.4480000   1.7310000 -41.7120000
  30.5810000   1.6270000 -41.7330000  27.4120000   3.8740000 -46.3830000
  26.5610000   3.4430000 -46.4700000  27.5110000   4.0210000 -45.4420000
  27.3150000   3.8380000 -46.2740000  26.0430000   0.8950000 -39.2320000
  25.4900000   1.2060000 -38.5160000  26.1040000   1.6410000 -39.8290000
  25.9800000   1.0300000 -39.2170000  30.7120000  15.0790000 -42.3420000
  30.5090000  14.7690000 -41.4600000  31.2260000  14.3710000 -42.7320000
  30.7520000  14.9480000 -42.2790000  33.3570000  12.6810000 -39.6950000
  32.7170000  12.1480000 -39.2230000  33.3190000  12.3580000 -40.5960000
  33.2700000  12.5710000 -39.7500000  27.1240000  15.0490000 -39.5600000
  26.7370000  14.6840000 -40.3560000  26.4760000  15.6780000 -39.2450000
  26.9910000  15.0820000 -39.6210000  19.4840000  14.4030000 -42.1900000
  19.1020000  15.2460000 -41.9470000  20.3080000  14.6290000 -42.6220000
  19.5400000  14.5400000 -42.2150000  21.3870000   4.0290000 -46.7690000
  21.2930000   3.5620000 -47.5990000  22.2100000   3.7060000 -46.4040000
  21.4800000   3.9280000 -46.8280000  23.5500000   3.2870000 -45.5130000
  24.0020000   2.7080000 -44.8990000  24.1130000   3.3020000 -46.2860000
  23.6800000   3.2150000 -45.5330000  20.1320000   6.3870000 -41.2440000
  19.5660000   6.7480000 -41.9260000  19.6360000   6.5030000 -40.4340000
  19.9960000   6.4480000 -41.2280000  31.3780000  20.0190000 -45.3270000
  32.1530000  19.8630000 -45.8660000  31.3470000  20.9700000 -45.2210000
  31.4730000  20.1210000 -45.3820000  33.1410000  15.8510000 -39.7910000
  33.4110000  14.9470000 -39.6310000  32.1890000  15.8380000 -39.6900000
  33.0530000  15.7340000 -39.7570000  33.4510000  11.5570000 -42.0940000
  32.8410000  10.8210000 -42.0380000  33.0190000  12.1810000 -42.6770000
  33.3180000  11.5420000 -42.1610000  22.5490000  12.1450000 -43.6690000
  22.0880000  12.4890000 -44.4340000  22.6300000  11.2070000 -43.8400000
  22.5000000  12.0690000 -43.7890000  25.5850000   5.2450000 -38.5410000
  24.8200000   4.8480000 -38.1230000  25.3310000   6.1560000 -38.6890000
  25.4540000   5.3110000 -38.5060000  32.3060000  13.4160000 -44.0750000
  32.1330000  13.3390000 -45.0130000  33.0890000  13.9630000 -44.0200000
  32.3840000  13.4760000 -44.1880000  34.1520000  18.3670000 -40.4650000
  34.5610000  18.5390000 -39.6170000  33.8830000  17.4500000 -40.4200000
  34.1700000  18.2720000 -40.3510000  33.1660000   3.0290000 -42.1970000
  32.8790000   3.8550000 -41.8060000  32.9430000   3.1130000 -43.1240000
  33.1000000   3.1460000 -42.2650000  31.5600000  11.1410000 -38.4030000
  30.7490000  11.1790000 -38.9100000  31.9240000  10.2780000 -38.5980000
  31.5030000  11.0360000 -38.4930000  24.9000000   3.1840000 -47.8450000
  24.7220000   3.7740000 -48.5770000  25.3850000   2.4570000 -48.2350000
  24.9390000   3.1670000 -47.9880000  21.1860000  13.2810000 -45.4630000
  21.4450000  13.9740000 -46.0710000  20.3140000  13.5400000 -45.1640000
  21.1080000  13.4030000 -45.5030000  34.8740000  10.8710000 -48.4820000
  35.7270000  10.5300000 -48.7520000  34.8960000  10.8420000 -47.5260000
  34.9860000  10.8230000 -48.3950000  27.8040000   7.7820000 -40.5770000
  27.0500000   7.4520000 -41.0650000  27.6030000   7.5840000 -39.6630000
  27.6820000   7.7140000 -40.5230000  31.3540000   7.1050000 -38.5080000
  30.5700000   7.0660000 -37.9600000  31.9910000   6.5540000 -38.0540000
  31.3350000   7.0300000 -38.3800000  32.7490000   5.6280000 -41.3050000
  33.4420000   5.8220000 -40.6730000  32.1130000   6.3340000 -41.1870000
  32.7560000   5.7430000 -41.2090000  33.2140000  17.8980000 -43.8300000
  32.7410000  18.7310000 -43.8370000  32.6830000  17.3170000 -44.3740000
  33.0850000  17.9300000 -43.9000000  27.4900000  -4.6680000  44.7380000
  27.3160000  -4.5070000  45.6650000  26.7250000  -5.1540000  44.4320000
  27.3700000  -4.7100000  44.8180000  24.0610000  -9.7710000  40.0680000
  23.9070000  -9.3140000  40.8950000  24.7730000 -10.3810000  40.2600000
  24.1320000  -9.7910000  40.1980000  34.2220000  -3.6120000  38.2550000
  33.3600000  -3.2840000  37.9980000  34.1260000  -4.5640000  38.2530000
  34.0990000  -3.6920000  38.2220000  20.9480000  -3.5150000  45.0320000
  20.9860000  -2.6220000  44.6870000  20.1490000  -3.5360000  45.5580000
  20.8510000  -3.4030000  45.0550000  25.6590000  -1.7250000  41.7200000
  24.8600000  -2.2520000  41.7300000  26.0030000  -1.8280000  40.8330000
  25.6010000  -1.8060000  41.6080000  29.5670000  -6.7400000  44.1870000
  29.1410000  -7.3470000  43.5830000  28.9040000  -6.0730000  44.3650000
  29.4280000  -6.7320000  44.1330000  27.5340000 -15.6890000  39.4300000
  27.2680000 -16.1520000  40.2240000  27.5500000 -16.3660000  38.7530000
  27.5020000 -15.8350000  39.4450000  30.6450000  -7.5490000  39.7320000
  31.4150000  -7.5280000  40.2990000  30.9640000  -7.9160000  38.9090000
  30.7840000  -7.5930000  39.6990000  34.3630000  -6.3120000  38.4800000
  34.4050000  -6.4460000  37.5320000  35.2490000  -6.0450000  38.7220000
  34.4820000  -6.2950000  38.3890000  34.7060000 -15.8820000  40.5670000
  34.8380000 -16.0260000  41.5050000  33.8380000 -15.4830000  40.5070000
  34.6120000 -15.8500000  40.6800000  31.3560000  -4.1450000  45.0680000
  31.5320000  -3.2950000  44.6650000  30.5970000  -4.4820000  44.5940000
  31.2820000  -4.0790000  44.9570000  31.1460000  -0.8200000  46.3200000
  31.7320000  -0.0830000  46.1450000  30.3640000  -0.6340000  45.8020000
  31.1210000  -0.7020000  46.2320000  23.4680000 -13.5650000  44.8400000
  23.0610000 -13.5660000  43.9730000  22.9820000 -12.9020000  45.3320000
  23.3540000 -13.4800000  44.7930000  22.8950000 -16.3780000  43.5580000
  22.1370000 -16.3910000  44.1430000  23.4270000 -17.1220000  43.8390000
  22.8660000 -16.4750000  43.6690000  27.5550000 -12.1790000  43.3890000
  26.7300000 -12.1970000  42.9040000  27.3040000 -12.3650000  44.2940000
  27.4170000 -12.2050000  43.4430000  24.6690000  -2.5140000  48.0070000
  24.4080000  -2.8890000  48.8480000  25.4000000  -3.0590000  47.7180000
  24.7290000  -2.6320000  48.0770000  22.9070000  -4.3210000  46.7220000
  22.1830000  -4.0180000  46.1730000  23.5010000  -3.5710000  46.7690000
  22.8910000  -4.1860000  46.6570000  22.3800000 -10.5570000  38.0590000
  21.7770000  -9.8200000  37.9640000  23.0090000 -10.2670000  38.7200000
  22.3830000 -10.4260000  38.1320000  26.8070000  -2.0950000  39.3520000
  27.2660000  -2.9170000  39.5240000  27.5050000  -1.4550000  39.2140000
  26.9550000  -2.1180000  39.3570000  25.5300000 -11.6040000  48.3340000
  26.4110000 -11.3120000  48.5670000  25.6160000 -11.9380000  47.4420000
  25.6540000 -11.6090000  48.2500000  29.8270000 -15.7850000  46.5180000
  28.8750000 -15.8480000  46.5890000  30.1550000 -16.5130000  47.0470000
  29.7470000 -15.8860000  46.5950000  34.9560000  -7.7770000  48.6400000
  35.3960000  -7.2700000  49.3230000  34.2840000  -8.2740000  49.1070000
  34.9270000  -7.7760000  48.7870000  29.6830000  -4.9480000  39.8070000
  29.9870000  -5.8410000  39.9630000  30.2100000  -4.4080000  40.3950000
  29.7890000  -4.9930000  39.9010000  32.3060000 -14.4600000  40.3820000
  32.4100000 -14.1160000  41.2690000  32.1760000 -13.6840000  39.8380000
  32.3030000 -14.3170000  40.4270000  34.9480000 -13.6120000  47.7090000
  35.8600000 -13.6010000  48.0030000  34.9480000 -14.1970000  46.9520000
  35.0650000 -13.6860000  47.6500000  24.5350000 -17.2860000  38.3690000
  24.8770000 -17.2770000  39.2630000  24.0500000 -16.4640000  38.2910000
  24.5170000 -17.1790000  38.4730000  19.7040000 -17.3700000  48.2730000
  20.5380000 -16.9160000  48.1500000  19.1160000 -16.9710000  47.6330000
  19.7360000 -17.2610000  48.1770000  27.1380000 -12.7750000  46.0230000
  27.2240000 -13.5590000  46.5670000  27.5780000 -12.0880000  46.5230000
  27.2050000 -12.7870000  46.1570000  34.2340000 -18.6360000  40.2380000
  34.3620000 -17.7210000  39.9860000  33.2850000 -18.7310000  40.3220000
  34.1290000 -18.5310000  40.2170000  20.2130000  -0.5530000  42.5430000
  19.4320000  -0.6840000  42.0050000  20.1830000   0.3720000  42.7870000
  20.1090000  -0.4510000  42.5050000  26.5660000  -4.2870000  47.2320000
  26.0860000  -5.0950000  47.4090000  27.2950000  -4.3010000  47.8520000
  26.5980000  -4.3920000  47.3340000  29.3710000 -13.4340000  39.5000000
  28.7450000 -14.1580000  39.5230000  29.5890000 -13.2750000  40.4170000
  29.3190000 -13.5060000  39.6190000  21.9440000  -2.0280000  41.0770000
  21.3620000  -1.5300000  41.6500000  22.1730000  -1.4170000  40.3760000
  21.8990000  -1.8860000  41.0600000  33.6680000 -14.7520000  45.0890000
  34.3640000 -15.1380000  44.5550000  33.0580000 -15.4740000  45.2430000
  33.6780000 -14.8940000  45.0400000  29.5690000 -13.3160000  42.1630000
  28.7460000 -13.0330000  42.5590000  30.2470000 -12.9300000  42.7180000
  29.5510000 -13.2310000  42.2850000  31.5880000  -8.2150000  45.7120000
  32.1330000  -7.7140000  46.3180000  30.8940000  -7.6080000  45.4550000
  31.5690000  -8.0740000  45.7570000  19.5710000  -6.6490000  46.5320000
  19.9650000  -6.7190000  45.6620000  20.1830000  -7.1040000  47.1100000
  19.7000000  -6.7160000  46.4940000  34.2920000 -10.9690000  41.9040000
  34.2490000 -10.3500000  42.6350000  33.9260000 -11.7800000  42.2570000
  34.2400000 -10.9930000  42.0430000  29.0420000 -10.1050000  42.3830000
  28.3700000 -10.7860000  42.4130000  29.1210000  -9.8880000  41.4550000
  28.9660000 -10.1640000  42.2680000  25.0920000  -6.6120000  48.3300000
  25.0520000  -7.5670000  48.2930000  24.6370000  -6.3840000  49.1400000
  25.0290000  -6.7050000  48.4300000  18.6750000 -10.8570000  42.1500000
  19.3400000 -10.2570000  42.4880000  17.8430000 -10.4230000  42.3390000
  18.6540000 -10.7250000  42.2180000  21.0080000  -6.4120000  44.3520000
  21.6870000  -6.6920000  44.9650000  21.1060000  -5.4620000  44.3030000
  21.1070000  -6.3260000  44.4250000  26.4220000  -7.6760000  39.4390000
  26.0390000  -7.9850000  38.6170000  26.6610000  -6.7650000  39.2630000
  26.4040000  -7.5990000  39.3120000  20.6780000 -16.2210000  45.1170000
  20.4400000 -17.0400000  44.6830000  19.9170000 -15.6530000  44.9890000
  20.5500000 -16.2530000  45.0440000  25.2490000 -17.4060000  41.1200000
  25.4940000 -18.2810000  41.4220000  25.0340000 -16.9290000  41.9220000
  25.2530000 -17.4570000  41.2610000  30.4810000 -15.6570000  43.6580000
  30.1870000 -14.9420000  43.0940000  30.2100000 -15.3960000  44.5380000
  30.4090000 -15.5320000  43.6980000  34.4340000  -5.1050000  45.3600000
  33.5190000  -5.0950000  45.0770000  34.5560000  -5.9730000  45.7440000
  34.3320000  -5.2150000  45.3730000  22.0870000 -13.1410000  39.1540000
  21.1620000 -13.3840000  39.1920000  22.0830000 -12.2210000  38.8890000
  21.9690000 -13.0540000  39.1250000  24.0560000  -8.7880000  42.4430000
  24.8790000  -8.3020000  42.4050000  24.1070000  -9.2830000  43.2600000
  24.1680000  -8.7890000  42.5430000  20.7470000  -0.9130000  46.5190000
  20.2050000  -0.4900000  47.1870000  21.6460000  -0.7160000  46.7820000
  20.7920000  -0.8330000  46.6380000  26.3510000  -7.1510000  42.4450000
  25.8280000  -6.4480000  42.8320000  26.3630000  -6.9550000  41.5100000
  26.2860000  -7.0360000  42.3750000  33.3940000 -12.2840000  38.6100000
  33.8720000 -12.6370000  37.8610000  33.8960000 -11.5120000  38.8720000
  33.5190000 -12.2300000  38.5470000  19.9340000  -3.0960000  48.7570000
  20.5890000  -2.7350000  48.1600000  19.2560000  -3.4510000  48.1830000
  19.9310000  -3.0950000  48.6070000  35.2460000 -21.2050000  48.0080000
  35.3920000 -20.7990000  48.8630000  34.3010000 -21.1360000  47.8690000
  35.1440000 -21.1440000  48.1010000  31.3340000 -11.0690000  45.7230000
  31.8320000 -11.2760000  44.9320000  31.5180000 -10.1440000  45.8870000
  31.4210000 -10.9770000  45.6420000  25.9590000 -12.3230000  39.4640000
  25.4780000 -13.1400000  39.3320000  26.3930000 -12.1640000  38.6250000
  25.9530000 -12.4070000  39.3390000  19.9230000  -7.2860000  39.9210000
  20.6900000  -7.6090000  40.3970000  19.1810000  -7.5250000  40.4760000
  19.9260000  -7.3580000  40.0530000  28.6550000 -10.4730000  46.3450000
  28.2480000  -9.7130000  45.9300000  29.5170000 -10.5380000  45.9350000
  28.7130000 -10.3840000  46.2390000  33.1920000  -9.2340000  43.8270000
  33.8660000  -8.8220000  44.3680000  32.3820000  -8.7880000  44.0730000
  33.1750000  -9.1240000  43.9280000  21.3460000  -8.7430000  47.3300000
  22.3030000  -8.7590000  47.3120000  21.1010000  -9.5570000  47.7700000
  21.4370000  -8.8490000  47.3850000  30.1880000 -13.2570000  47.6800000
  30.8140000 -12.8070000  47.1130000  30.0460000 -14.1040000  47.2550000
  30.2500000 -13.3080000  47.5530000  30.2120000 -16.5120000  40.4360000
  29.4530000 -16.2640000  39.9070000  30.7670000 -15.7320000  40.4370000
  30.1860000 -16.3800000  40.3680000  22.7470000 -13.2190000  42.1530000
  22.6570000 -13.4900000  41.2390000  21.8490000 -13.0620000  42.4450000
  22.6200000 -13.2330000  42.0730000  32.3340000 -17.3280000  44.9480000
  31.6720000 -16.9220000  44.3880000  33.0290000 -17.5910000  44.3450000
  32.3380000 -17.3090000  44.8000000  24.6930000 -10.3030000  44.5530000
  24.8810000 -11.0550000  43.9900000  25.5490000  -9.9120000  44.7230000
  24.8260000 -10.3490000  44.5030000  23.3400000 -18.4330000  46.7120000
  23.5110000 -17.5120000  46.9100000  23.9060000 -18.9170000  47.3120000
  23.4340000 -18.3770000  46.8140000  27.1430000  -5.0960000  38.8360000
  27.9870000  -5.1340000  39.2870000  27.3660000  -4.8910000  37.9280000
  27.2800000  -5.0750000  38.7780000  24.1940000  -9.3060000  47.1050000
  24.4510000  -9.7240000  46.2820000  24.2780000  -9.9980000  47.7600000
  24.2380000  -9.4480000  47.0830000  31.5060000  -4.8510000  47.5640000
  31.6040000  -4.6040000  46.6430000  30.6520000  -4.5010000  47.8150000
  31.4090000  -4.7750000  47.4780000  28.8960000  -0.4370000  44.9030000
  28.7110000  -1.2640000  44.4570000  28.5840000   0.2360000  44.2970000
  28.8320000  -0.4570000  44.7670000  30.4840000  -1.2020000  37.9920000
  30.6420000  -0.3630000  37.5590000  30.7460000  -1.0550000  38.9010000
  30.5380000  -1.0760000  38.0530000  32.5940000  -2.4250000  48.1020000
  32.0500000  -1.8250000  47.5920000  32.2030000  -3.2860000  47.9570000
  32.4750000  -2.4580000  48.0180000  26.6860000  -0.0570000  47.0760000
  26.6520000  -0.7440000  47.7400000  27.1620000  -0.4520000  46.3450000
  26.7420000  -0.1950000  47.0680000  28.5650000  -9.3290000  39.7630000
  29.2950000  -8.7090000  39.7530000  27.7830000  -8.7780000  39.7320000
  28.5580000  -9.1790000  39.7570000  28.1970000 -11.9480000  48.8800000
  27.7480000 -12.7020000  49.2620000  28.9190000 -12.3280000  48.3800000
  28.2320000 -12.0930000  48.8640000  25.2200000 -15.2110000  42.8630000
  25.0720000 -14.2680000  42.7840000  24.4280000 -15.5430000  43.2870000
  25.1000000 -15.1330000  42.9070000  29.0880000  -0.6010000  48.8400000
  29.8780000  -0.0630000  48.7870000  28.4880000  -0.2090000  48.2070000
  29.1120000  -0.4820000  48.7530000  24.4760000 -14.7220000  39.4570000
  23.5590000 -14.9370000  39.6230000  24.9510000 -15.1100000  40.1920000
  24.4190000 -14.7990000  39.5720000  32.0780000  -1.9710000  43.6930000
  31.7100000  -1.3900000  44.3570000  32.9690000  -1.6480000  43.5580000
  32.1450000  -1.8550000  43.7600000  30.1830000  -9.5340000  48.6780000
  29.9150000  -8.8910000  49.3350000  29.3840000  -9.7160000  48.1820000
  30.0460000  -9.4750000  48.6980000  20.0810000 -12.9950000  43.3400000
  20.4810000 -12.4100000  43.9850000  19.6170000 -12.4100000  42.7420000
  20.0730000 -12.8450000  43.3470000  22.0410000 -18.3160000  39.3850000
  22.0420000 -17.5740000  39.9890000  22.5450000 -18.0120000  38.6320000
  22.1060000 -18.1820000  39.3670000  22.9570000  -6.2800000  39.6690000
  23.0430000  -6.3310000  38.7170000  22.4040000  -5.5120000  39.8180000
  22.8970000  -6.1880000  39.5670000  20.4710000 -11.0590000  48.5280000
  19.6920000 -10.5530000  48.7600000  20.2090000 -11.9720000  48.6520000
  20.3380000 -11.1110000  48.5730000  23.5670000  -6.9020000  45.6350000
  23.4800000  -6.1220000  46.1830000  23.6390000  -7.6260000  46.2570000
  23.5650000  -6.8950000  45.7840000  19.1980000 -15.8180000  40.8390000
  19.1410000 -16.0720000  39.9180000  18.6500000 -15.0360000  40.9070000
  19.1200000 -15.7500000  40.7300000  24.7510000 -18.2450000  44.2700000
  24.3460000 -18.5760000  45.0730000  24.8580000 -19.0190000  43.7180000
  24.7130000 -18.3860000  44.3030000  35.8360000  -2.7860000  44.0100000
  35.9060000  -3.4150000  44.7270000  35.9020000  -3.3180000  43.2180000
  35.8530000  -2.9340000  44.0000000  25.2940000 -12.1990000  42.1570000
  25.6670000 -12.2640000  41.2780000  24.3890000 -12.4950000  42.0550000
  25.2260000 -12.2460000  42.0320000  24.9930000  -5.0420000  40.5910000
  24.2610000  -5.5310000  40.2140000  25.6530000  -5.0290000  39.8980000
  24.9830000  -5.1030000  40.4550000  27.4390000 -15.3020000  44.5410000
  26.5870000 -15.4400000  44.1300000  27.4890000 -14.3550000  44.6780000
  27.3370000 -15.1980000  44.5070000  28.4840000 -11.6310000  37.7800000
  28.4650000 -10.9810000  38.4820000  28.8390000 -12.4190000  38.1920000
  28.5270000 -11.6480000  37.9220000  30.4460000  -2.7520000  41.6500000
  29.7610000  -2.8240000  42.3150000  31.2440000  -2.5740000  42.1470000
  30.4600000  -2.7390000  41.8000000  28.1570000 -17.1280000  42.6320000
  27.9320000 -16.3430000  43.1320000  29.0560000 -16.9760000  42.3400000
  28.2440000 -17.0080000  42.6590000  33.5840000 -17.4080000  47.5030000
  34.4550000 -17.8010000  47.5590000  33.4850000 -17.1770000  46.5800000
  33.6830000 -17.4290000  47.3920000  33.6090000 -13.5430000  42.7500000
  33.3880000 -13.7930000  43.6480000  34.4250000 -14.0090000  42.5680000
  33.6850000 -13.6350000  42.8430000  31.4550000  -3.7800000  37.8970000
  31.0550000  -2.9120000  37.9470000  30.9790000  -4.3010000  38.5440000
  31.3430000  -3.7350000  37.9860000  27.4120000 -14.9930000  47.9180000
  26.5610000 -15.4240000  47.8300000  27.5110000 -14.8460000  48.8580000
  27.3150000 -15.0290000  48.0270000  24.8340000  -5.4590000  43.7530000
  24.1980000  -5.9140000  44.3050000  24.3460000  -4.7250000  43.3800000
  24.6910000  -5.4230000  43.7770000  21.3870000 -14.8380000  47.5320000
  21.2930000 -15.3050000  46.7020000  22.2100000 -15.1610000  47.8970000
  21.4800000 -14.9390000  47.4730000  35.0920000  -6.3270000  42.8550000
  35.1140000  -6.2110000  43.8050000  35.2650000  -5.4540000  42.5030000
  35.1170000  -6.2000000  42.9320000  34.4670000  -0.3870000  43.1620000
  34.2030000  -0.4220000  42.2430000  35.0890000  -1.1080000  43.2600000
  34.5130000  -0.4840000  43.0570000  31.6410000  -0.3910000  40.6720000
  31.1250000  -1.0760000  41.0980000  31.1580000   0.4160000  40.8460000
  31.5130000  -0.3760000  40.7500000  31.3780000   1.1520000  48.9730000
  32.1530000   0.9960000  48.4340000  31.3470000   2.1030000  49.0800000
  31.4730000   1.2540000  48.9180000  27.9480000  -2.4360000  43.2020000
  27.7100000  -3.2490000  43.6470000  27.1430000  -2.1580000  42.7650000
  27.8150000  -2.5040000  43.2030000  20.7450000  -9.0810000  42.8170000
  21.7010000  -9.0490000  42.8430000  20.4740000  -8.1640000  42.8550000
  20.8330000  -8.9600000  42.8250000  22.1040000 -15.7910000  40.7870000
  22.4120000 -15.7260000  41.6920000  21.1860000 -16.0490000  40.8670000
  22.0260000 -15.8160000  40.9130000  31.4130000 -11.5300000  43.1720000
  32.0330000 -11.0860000  42.5930000  30.6030000 -11.0260000  43.0870000
  31.3890000 -11.4080000  43.0870000  18.0330000  -5.4780000  39.1320000
  18.6610000  -6.0010000  39.6320000  18.5270000  -5.1720000  38.3710000
  18.1770000  -5.5060000  39.1000000  23.7050000  -3.3940000  42.4030000
  23.0050000  -2.9960000  41.8860000  24.1370000  -3.9970000  41.7970000
  23.6710000  -3.4200000  42.2600000  27.1240000  -9.0670000  44.5440000
  27.6380000  -9.6670000  44.0050000  26.8500000  -8.3770000  43.9400000
  27.1540000  -9.0560000  44.3980000  19.6110000  -1.7120000  38.5910000
  20.1680000  -2.4710000  38.7620000  20.1790000  -0.9580000  38.7460000
  19.7550000  -1.7130000  38.6320000  24.9000000 -15.6830000  46.4550000
  24.7220000 -15.0930000  45.7230000  25.3850000 -16.4100000  46.0650000
  24.9390000 -15.7000000  46.3120000  18.5050000  -9.0930000  45.0320000
  19.1020000  -8.8370000  44.3280000  18.8080000  -8.5980000  45.7940000
  18.6200000  -8.9970000  45.0400000  21.1860000  -5.5860000  48.8370000
  21.4450000  -4.8930000  48.2300000  20.3140000  -5.3270000  49.1370000
  21.1080000  -5.4640000  48.7970000  34.8740000  -7.9960000  45.8180000
  35.7270000  -8.3370000  45.5480000  34.8960000  -8.0250000  46.7750000
  34.9860000  -8.0440000  45.9050000  33.0200000  -7.3250000  41.0330000
  33.4160000  -6.9840000  41.8350000  33.5110000  -6.9060000  40.3270000
  33.1330000  -7.2280000  41.0460000  25.3260000 -16.2980000  32.4540000
  25.5540000 -16.3260000  33.3830000  24.6970000 -17.0100000  32.3410000
  25.2750000 -16.3930000  32.5590000  22.7250000  -2.1120000  32.7140000
  21.7710000  -2.1800000  32.6820000  22.9140000  -1.8050000  33.6000000
  22.6260000  -2.0810000  32.8230000  27.4900000  -4.6680000  25.8770000
  27.3160000  -4.5070000  26.8050000  26.7250000  -5.1540000  25.5710000
  27.3700000  -4.7100000  25.9570000  23.2420000 -18.0120000  31.9600000
  22.6820000 -17.5640000  32.5940000  23.0960000 -18.9430000  32.1270000
  23.1520000 -18.0740000  32.0620000  24.0610000  -9.7710000  21.2080000
  23.9070000  -9.3140000  22.0350000  24.7730000 -10.3810000  21.4000000
  24.1320000  -9.7910000  21.3380000  27.4560000 -14.5620000  31.8130000
  26.8530000 -15.2030000  32.1880000  28.2450000 -14.6310000  32.3510000
  27.4800000 -14.6520000  31.9300000  27.9940000 -18.1250000  38.0910000
  28.8860000 -18.3540000  37.8270000  27.4720000 -18.2460000  37.2980000
  28.0420000 -18.1690000  37.9570000  34.2220000  -3.6120000  19.3940000
  33.3600000  -3.2840000  19.1380000  34.1260000  -4.5640000  19.3930000
  34.0990000  -3.6920000  19.3610000  20.9480000  -3.5150000  26.1710000
  20.9860000  -2.6220000  25.8270000  20.1490000  -3.5360000  26.6970000
  20.8510000  -3.4030000  26.1940000  25.6590000  -1.7250000  22.8600000
  24.8600000  -2.2520000  22.8700000  26.0030000  -1.8280000  21.9730000
  25.6010000  -1.8060000  22.7480000  29.8790000 -14.7360000  33.0820000
  30.0570000 -15.6180000  33.4070000  30.1980000 -14.1560000  33.7730000
  29.9430000 -14.7750000  33.2120000  29.5670000  -6.7400000  25.3270000
  29.1410000  -7.3470000  24.7230000  28.9040000  -6.0730000  25.5050000
  29.4280000  -6.7320000  25.2730000  27.5340000 -15.6890000  20.5690000
  27.2680000 -16.1520000  21.3640000  27.5500000 -16.3660000  19.8930000
  27.5020000 -15.8350000  20.5850000  27.7690000  -8.5010000  33.8530000
  27.6410000  -9.3660000  34.2420000  28.2120000  -8.6760000  33.0220000
  27.8090000  -8.6340000  33.7960000  30.6450000  -7.5490000  20.8720000
  31.4150000  -7.5280000  21.4390000  30.9640000  -7.9160000  20.0480000
  30.7840000  -7.5930000  20.8390000  18.8930000 -14.1710000  32.4100000
  19.1700000 -13.6020000  33.1280000  18.2910000 -14.7940000  32.8170000
  18.8520000 -14.1780000  32.5540000  34.3630000  -6.3120000  19.6190000
  34.4050000  -6.4460000  18.6720000  35.2490000  -6.0450000  19.8620000
  34.4820000  -6.2950000  19.5290000  19.7660000  -7.8340000  35.0030000
  18.8450000  -8.0540000  34.8630000  19.8460000  -7.7270000  35.9500000
  19.6580000  -7.8490000  35.1060000  34.7060000 -15.8820000  21.7070000
  34.8380000 -16.0260000  22.6440000  33.8380000 -15.4830000  21.6470000
  34.6120000 -15.8500000  21.8200000  31.3560000  -4.1450000  26.2080000
  31.5320000  -3.2950000  25.8050000  30.5970000  -4.4820000  25.7340000
  31.2820000  -4.0790000  26.0960000  31.1460000  -0.8200000  27.4600000
  31.7320000  -0.0830000  27.2850000  30.3640000  -0.6340000  26.9410000
  31.1210000  -0.7020000  27.3710000  23.4680000 -13.5650000  25.9800000
  23.0610000 -13.5660000  25.1130000  22.9820000 -12.9020000  26.4710000
  23.3540000 -13.4800000  25.9320000  21.5870000 -17.1690000  33.9980000
  21.7940000 -16.2710000  34.2550000  21.2310000 -17.5700000  34.7910000
  21.5680000 -17.1060000  34.1320000  22.8950000 -16.3780000  24.6980000
  22.1370000 -16.3910000  25.2830000  23.4270000 -17.1220000  24.9790000
  22.8660000 -16.4750000  24.8090000  29.9350000 -12.6800000  34.9970000
  30.5210000 -12.3670000  35.6860000  29.2090000 -12.0550000  34.9970000
  29.9170000 -12.5600000  35.0850000  27.5550000 -12.1790000  24.5290000
  26.7300000 -12.1970000  24.0440000  27.3040000 -12.3650000  25.4340000
  27.4170000 -12.2050000  24.5830000  24.6690000  -2.5140000  29.1460000
  24.4080000  -2.8890000  29.9870000  25.4000000  -3.0590000  28.8570000
  24.7290000  -2.6320000  29.2160000  22.9070000  -4.3210000  27.8610000
  22.1830000  -4.0180000  27.3130000  23.5010000  -3.5710000  27.9090000
  22.8910000  -4.1860000  27.7970000  19.4560000 -14.1670000  38.0510000
  19.2580000 -14.0860000  37.1190000  18.6620000 -13.8640000  38.4920000
  19.3290000 -14.1180000  37.9880000  22.3800000 -10.5570000  19.1990000
  21.7770000  -9.8200000  19.1030000  23.0090000 -10.2670000  19.8600000
  22.3830000 -10.4260000  19.2710000  26.8070000  -2.0950000  20.4920000
  27.2660000  -2.9170000  20.6640000  27.5050000  -1.4550000  20.3530000
  26.9550000  -2.1180000  20.4960000  25.5300000 -11.6040000  29.4740000
  26.4110000 -11.3120000  29.7060000  25.6160000 -11.9380000  28.5810000
  25.6540000 -11.6090000  29.3890000  19.4240000  -5.1410000  36.8080000
  18.6620000  -4.5730000  36.6910000  19.6290000  -5.4510000  35.9260000
  19.3520000  -5.1080000  36.6800000  21.4950000  -3.8460000  38.1450000
  21.9780000  -3.2850000  37.5380000  21.0520000  -4.4820000  37.5840000
  21.5000000  -3.8550000  37.9960000  25.1210000  -2.1100000  36.9430000
  25.6950000  -2.1970000  37.7040000  25.0790000  -1.1680000  36.7820000
  25.1890000  -2.0010000  37.0190000  29.8270000 -15.7850000  27.6580000
  28.8750000 -15.8480000  27.7290000  30.1550000 -16.5130000  28.1860000
  29.7470000 -15.8860000  27.7350000  34.9560000  -7.7770000  29.7800000
  35.3960000  -7.2700000  30.4630000  34.2840000  -8.2740000  30.2460000
  34.9270000  -7.7760000  29.9270000  25.4760000  -8.2560000  36.8440000
  25.3190000  -9.2000000  36.8080000  25.3870000  -7.9640000  35.9370000
  25.4440000  -8.3400000  36.7230000  29.6830000  -4.9480000  20.9460000
  29.9870000  -5.8410000  21.1020000  30.2100000  -4.4080000  21.5350000
  29.7890000  -4.9930000  21.0410000  32.3060000 -14.4600000  21.5220000
  32.4100000 -14.1160000  22.4090000  32.1760000 -13.6840000  20.9770000
  32.3030000 -14.3170000  21.5660000  34.9480000 -13.6120000  28.8490000
  35.8600000 -13.6010000  29.1420000  34.9480000 -14.1970000  28.0910000
  35.0650000 -13.6860000  28.7900000  32.7930000  -9.2750000  30.7000000
  31.9180000  -9.5320000  30.4100000  33.1450000 -10.0580000  31.1240000
  32.7260000  -9.4080000  30.7170000  22.5010000  -2.3590000  35.8580000
  22.2500000  -1.4550000  36.0490000  23.4070000  -2.4240000  36.1610000
  22.5860000  -2.2510000  35.9210000  24.5350000 -17.2860000  19.5090000
  24.8770000 -17.2770000  20.4030000  24.0500000 -16.4640000  19.4310000
  24.5170000 -17.1790000  19.6130000  19.7040000 -17.3700000  29.4130000
  20.5380000 -16.9160000  29.2890000  19.1160000 -16.9710000  28.7730000
  19.7360000 -17.2610000  29.3160000  20.8030000 -18.2370000  36.4250000
  19.9700000 -18.6640000  36.6260000  20.7700000 -17.4100000  36.9050000
  20.6920000 -18.1860000  36.5120000  27.1380000 -12.7750000  27.1630000
  27.2240000 -13.5590000  27.7060000  27.5780000 -12.0880000  27.6630000
  27.2050000 -12.7870000  27.2960000  34.2340000 -18.6360000  21.3770000
  34.3620000 -17.7210000  21.1250000  33.2850000 -18.7310000  21.4620000
  34.1290000 -18.5310000  21.3560000  20.2130000  -0.5530000  23.6820000
  19.4320000  -0.6840000  23.1440000  20.1830000   0.3720000  23.9260000
  20.1090000  -0.4510000  23.6440000  30.2640000  -4.7510000  35.6330000
  30.8460000  -4.9150000  36.3740000  29.6700000  -4.0650000  35.9410000
  30.2620000  -4.6840000  35.7670000  26.5660000  -4.2870000  28.3720000
  26.0860000  -5.0950000  28.5490000  27.2950000  -4.3010000  28.9910000
  26.5980000  -4.3920000  28.4740000  29.3710000 -13.4340000  20.6390000
  28.7450000 -14.1580000  20.6630000  29.5890000 -13.2750000  21.5570000
  29.3190000 -13.5060000  20.7590000  26.1090000 -11.7860000  32.7600000
  25.2640000 -12.1060000  33.0760000  26.5820000 -12.5770000  32.5000000
  26.0610000 -11.9280000  32.7670000  23.0360000  -6.6000000  37.0930000
  23.8470000  -7.0880000  36.9510000  22.7670000  -6.3230000  36.2170000
  23.1050000  -6.6270000  36.9620000  21.9440000  -2.0280000  22.2160000
  21.3620000  -1.5300000  22.7890000  22.1730000  -1.4170000  21.5160000
  21.8990000  -1.8860000  22.2000000  25.2980000  -7.5600000  34.1210000
  26.1780000  -7.9330000  34.0690000  24.7600000  -8.1410000  33.5840000
  25.3420000  -7.6820000  34.0460000  34.2870000  -3.8490000  32.4780000
  33.9360000  -3.9520000  33.3630000  34.4350000  -2.9070000  32.3880000
  34.2610000  -3.7420000  32.5800000  33.6680000 -14.7520000  26.2280000
  34.3640000 -15.1380000  25.6950000  33.0580000 -15.4740000  26.3830000
  33.6780000 -14.8940000  26.1790000  31.7420000  -9.3030000  33.7700000
  31.1850000  -9.6970000  33.0980000  31.1660000  -8.6930000  34.2300000
  31.5970000  -9.2750000  33.7430000  35.6560000 -10.0420000  36.9640000
  34.8330000  -9.7020000  36.6150000  35.5120000 -10.0980000  37.9090000
  35.5330000 -10.0060000  37.0410000  29.5690000 -13.3160000  23.3030000
  28.7460000 -13.0330000  23.6990000  30.2470000 -12.9300000  23.8580000
  29.5510000 -13.2310000  23.4250000  22.5810000  -9.7250000  31.3960000
  22.2040000  -9.8520000  32.2660000  22.0180000 -10.2360000  30.8140000
  22.4610000  -9.8060000  31.4330000  31.5880000  -8.2150000  26.8510000
  32.1330000  -7.7140000  27.4580000  30.8940000  -7.6080000  26.5940000
  31.5690000  -8.0740000  26.8960000  19.5710000  -6.6490000  27.6720000
  19.9650000  -6.7190000  26.8020000  20.1830000  -7.1040000  28.2490000
  19.7000000  -6.7160000  27.6340000  34.2920000 -10.9690000  23.0440000
  34.2490000 -10.3500000  23.7740000  33.9260000 -11.7800000  23.3960000
  34.2400000 -10.9930000  23.1830000  29.0420000 -10.1050000  23.5230000
  28.3700000 -10.7860000  23.5530000  29.1210000  -9.8880000  22.5940000
  28.9660000 -10.1640000  23.4080000  22.7290000 -15.2520000  37.4860000
  22.5760000 -14.9720000  36.5840000  22.4920000 -14.4920000  38.0170000
  22.6790000 -15.1190000  37.4390000  30.2280000  -1.1260000  32.6410000
  29.6790000  -1.1950000  31.8610000  30.5920000  -2.0030000  32.7570000
  30.2050000  -1.2470000  32.5560000  24.6620000 -11.1310000  36.5920000
  24.5470000 -11.4150000  35.6850000  23.7710000 -11.0280000  36.9250000
  24.5330000 -11.1540000  36.5180000  23.7070000 -12.8040000  31.4380000
  23.1170000 -13.5430000  31.2860000  24.3190000 -12.8320000  30.7030000
  23.7100000 -12.9020000  31.3240000  25.0920000  -6.6120000  29.4700000
  25.0520000  -7.5670000  29.4330000  24.6370000  -6.3840000  30.2800000
  25.0290000  -6.7050000  29.5690000  33.0570000  -9.9590000  36.1520000
  32.3660000 -10.5990000  36.3200000  32.8490000  -9.6030000  35.2890000
  32.9420000  -9.9960000  36.0630000  18.6750000 -10.8570000  23.2890000
  19.3400000 -10.2570000  23.6270000  17.8430000 -10.4230000  23.4780000
  18.6540000 -10.7250000  23.3570000  21.0080000  -6.4120000  25.4910000
  21.6870000  -6.6920000  26.1050000  21.1060000  -5.4620000  25.4420000
  21.1070000  -6.3260000  25.5640000  26.4220000  -7.6760000  20.5780000
  26.0390000  -7.9850000  19.7570000  26.6610000  -6.7650000  20.4030000
  26.4040000  -7.5990000  20.4510000  20.6780000 -16.2210000  26.2560000
  20.4400000 -17.0400000  25.8220000  19.9170000 -15.6530000  26.1300000
  20.5500000 -16.2530000  26.1840000  25.2490000 -17.4060000  22.2600000
  25.4940000 -18.2810000  22.5610000  25.0340000 -16.9290000  23.0610000
  25.2530000 -17.4570000  22.4010000  30.4810000 -15.6570000  24.7980000
  30.1870000 -14.9420000  24.2340000  30.2100000 -15.3960000  25.6780000
  30.4090000 -15.5320000  24.8380000  28.9350000  -4.0010000  29.8800000
  28.8710000  -4.5210000  30.6820000  29.4800000  -3.2520000  30.1230000
  28.9960000  -3.9720000  30.0140000  34.4340000  -5.1050000  26.4990000
  33.5190000  -5.0950000  26.2160000  34.5560000  -5.9730000  26.8840000
  34.3320000  -5.2150000  26.5120000  22.0870000 -13.1410000  20.2940000
  21.1620000 -13.3840000  20.3320000  22.0830000 -12.2210000  20.0290000
  21.9690000 -13.0540000  20.2650000  24.0560000  -8.7880000  23.5830000
  24.8790000  -8.3020000  23.5450000  24.1070000  -9.2830000  24.4000000
  24.1680000  -8.7890000  23.6820000  20.7470000  -0.9130000  27.6590000
  20.2050000  -0.4900000  28.3260000  21.6460000  -0.7160000  27.9210000
  20.7920000  -0.8330000  27.7780000  26.3510000  -7.1510000  23.5850000
  25.8280000  -6.4480000  23.9710000  26.3630000  -6.9550000  22.6490000
  26.2860000  -7.0360000  23.5150000  33.3940000 -12.2840000  19.7490000
  33.8720000 -12.6370000  19.0000000  33.8960000 -11.5120000  20.0120000
  33.5190000 -12.2300000  19.6870000  22.2880000  -6.8480000  34.5790000
  22.2500000  -6.5310000  33.6780000  21.4160000  -7.2070000  34.7440000
  22.1710000  -6.8540000  34.4860000  26.1960000  -5.1080000  33.1540000
  25.4130000  -4.7020000  32.7850000  25.9080000  -5.9790000  33.4280000
  26.0590000  -5.1680000  33.1420000  19.9340000  -3.0960000  29.8970000
  20.5890000  -2.7350000  29.3000000  19.2560000  -3.4510000  29.3220000
  19.9310000  -3.0950000  29.7470000  35.2460000 -21.2050000  29.1480000
  35.3920000 -20.7990000  30.0030000  34.3010000 -21.1360000  29.0090000
  35.1440000 -21.1440000  29.2400000  25.2220000  -9.1510000  31.6330000
  25.5470000  -9.9540000  32.0400000  24.3530000  -9.3830000  31.3070000
  25.1520000  -9.2830000  31.6430000  20.8380000  -8.2170000  37.6020000
  21.6410000  -7.7070000  37.4920000  20.3880000  -7.7990000  38.3370000
  20.8830000  -8.0980000  37.6820000  31.3340000 -11.0690000  26.8620000
  31.8320000 -11.2760000  26.0710000  31.5180000 -10.1440000  27.0260000
  31.4210000 -10.9770000  26.7820000  25.9590000 -12.3230000  20.6030000
  25.4780000 -13.1400000  20.4720000  26.3930000 -12.1640000  19.7650000
  25.9530000 -12.4070000  20.4790000  19.9230000  -7.2860000  21.0610000
  20.6900000  -7.6090000  21.5360000  19.1810000  -7.5250000  21.6160000
  19.9260000  -7.3580000  21.1930000  19.2610000 -13.5300000  29.7570000
  20.0590000 -13.8800000  29.3620000  19.2410000 -13.9100000  30.6350000
  19.3600000 -13.6240000  29.8190000  28.6550000 -10.4730000  27.4850000
  28.2480000  -9.7130000  27.0690000  29.5170000 -10.5380000  27.0750000
  28.7130000 -10.3840000  27.3800000  33.1920000  -9.2340000  24.9670000
  33.8660000  -8.8220000  25.5070000  32.3820000  -8.7880000  25.2130000
  33.1750000  -9.1240000  25.0670000  21.3460000  -8.7430000  28.4700000
  22.3030000  -8.7590000  28.4510000  21.1010000  -9.5570000  28.9100000
  21.4370000  -8.8490000  28.5240000  31.6490000 -14.7330000  31.0090000
  31.1950000 -14.2910000  30.2910000  31.1070000 -14.5580000  31.7780000
  31.5220000 -14.6540000  31.0150000  30.1880000 -13.2570000  28.8190000
  30.8140000 -12.8070000  28.2520000  30.0460000 -14.1040000  28.3950000
  30.2500000 -13.3080000  28.6920000  28.7230000  -5.3800000  32.3180000
  29.1160000  -4.5590000  32.6140000  27.8100000  -5.3250000  32.6000000
  28.6570000  -5.2680000  32.3920000  30.2120000 -16.5120000  21.5750000
  29.4530000 -16.2640000  21.0470000  30.7670000 -15.7320000  21.5760000
  30.1860000 -16.3800000  21.5080000  22.7470000 -13.2190000  23.2920000
  22.6570000 -13.4900000  22.3790000  21.8490000 -13.0620000  23.5850000
  22.6200000 -13.2330000  23.2130000  32.3340000 -17.3280000  26.0880000
  31.6720000 -16.9220000  25.5280000  33.0290000 -17.5910000  25.4850000
  32.3380000 -17.3090000  25.9390000  33.9470000 -12.0960000  31.4670000
  33.6820000 -12.7480000  32.1170000  34.1660000 -12.6090000  30.6890000
  33.9410000 -12.2450000  31.4510000  24.6930000 -10.3030000  25.6920000
  24.8810000 -11.0550000  25.1300000  25.5490000  -9.9120000  25.8620000
  24.8260000 -10.3490000  25.6420000  26.3490000 -15.4430000  34.9320000
  27.2710000 -15.3670000  35.1760000  25.8970000 -14.8260000  35.5070000
  26.4090000 -15.3550000  35.0360000  23.3400000 -18.4330000  27.8510000
  23.5110000 -17.5120000  28.0500000  23.9060000 -18.9170000  28.4520000
  23.4340000 -18.3770000  27.9530000  27.1430000  -5.0960000  19.9750000
  27.9870000  -5.1340000  20.4260000  27.3660000  -4.8910000  19.0670000
  27.2800000  -5.0750000  19.9170000  24.1940000  -9.3060000  28.2440000
  24.4510000  -9.7240000  27.4220000  24.2780000  -9.9980000  28.9000000
  24.2380000  -9.4480000  28.2230000  31.5060000  -4.8510000  28.7030000
  31.6040000  -4.6040000  27.7830000  30.6520000  -4.5010000  28.9550000
  31.4090000  -4.7750000  28.6180000  28.8960000  -0.4370000  26.0420000
  28.7110000  -1.2640000  25.5960000  28.5840000   0.2360000  25.4370000
  28.8320000  -0.4570000  25.9070000  35.0000000 -18.5670000  37.6670000
  34.4590000 -19.0820000  38.2660000  34.5360000 -17.7340000  37.5800000
  34.8720000 -18.5260000  37.7330000  30.4840000  -1.2020000  19.1320000
  30.6420000  -0.3630000  18.6990000  30.7460000  -1.0550000  20.0410000
  30.5380000  -1.0760000  19.1930000  32.5940000  -2.4250000  29.2420000
  32.0500000  -1.8250000  28.7310000  32.2030000  -3.2860000  29.0960000
  32.4750000  -2.4580000  29.1580000  26.6860000  -0.0570000  28.2150000
  26.6520000  -0.7440000  28.8800000  27.1620000  -0.4520000  27.4850000
  26.7420000  -0.1950000  28.2070000  28.5650000  -9.3290000  20.9030000
  29.2950000  -8.7090000  20.8920000  27.7830000  -8.7780000  20.8720000
  28.5580000  -9.1790000  20.8970000  28.1970000 -11.9480000  30.0190000
  27.7480000 -12.7020000  30.4010000  28.9190000 -12.3280000  29.5190000
  28.2320000 -12.0930000  30.0050000  29.7320000  -7.8240000  31.7310000
  29.4560000  -7.0000000  32.1330000  30.6830000  -7.8370000  31.8400000
  29.8190000  -7.7200000  31.7960000  25.2200000 -15.2110000  24.0020000
  25.0720000 -14.2680000  23.9240000  24.4280000 -15.5430000  24.4260000
  25.1000000 -15.1330000  24.0460000  29.0880000  -0.6010000  29.9800000
  29.8780000  -0.0630000  29.9260000  28.4880000  -0.2090000  29.3460000
  29.1120000  -0.4820000  29.8920000  28.8710000 -14.8670000  36.4210000
  28.4050000 -14.2690000  37.0050000  29.4660000 -14.3030000  35.9260000
  28.8870000 -14.7190000  36.4320000  24.4760000 -14.7220000  20.5970000
  23.5590000 -14.9370000  20.7630000  24.9510000 -15.1100000  21.3320000
  24.4190000 -14.7990000  20.7120000  21.1180000  -9.9760000  33.8680000
  20.4390000  -9.3370000  34.0880000  20.7090000 -10.8250000  34.0320000
  20.9780000 -10.0030000  33.9170000  32.0780000  -1.9710000  24.8320000
  31.7100000  -1.3900000  25.4970000  32.9690000  -1.6480000  24.6980000
  32.1450000  -1.8550000  24.9000000  19.2660000 -17.0670000  32.4500000
  20.1280000 -17.1060000  32.8640000  19.4520000 -16.9170000  31.5230000
  19.4000000 -17.0530000  32.3840000  30.1830000  -9.5340000  29.8170000
  29.9150000  -8.8910000  30.4740000  29.3840000  -9.7160000  29.3210000
  30.0460000  -9.4750000  29.8370000  18.7250000 -11.8960000  36.4370000
  18.1250000 -11.1630000  36.5780000  19.2720000 -11.9130000  37.2230000
  18.7180000 -11.8040000  36.5570000  20.0810000 -12.9950000  24.4800000
  20.4810000 -12.4100000  25.1240000  19.6170000 -12.4100000  23.8810000
  20.0730000 -12.8450000  24.4860000  30.1600000 -11.2000000  32.3800000
  29.9970000 -10.8910000  31.4880000  29.2990000 -11.4640000  32.7020000
  30.0290000 -11.1940000  32.3070000  30.3820000 -16.9790000  36.5170000
  30.3790000 -17.2690000  35.6050000  29.7100000 -16.2980000  36.5540000
  30.2950000 -16.9290000  36.4050000  22.9570000  -6.2800000  20.8090000
  23.0430000  -6.3310000  19.8570000  22.4040000  -5.5120000  20.9580000
  22.8970000  -6.1880000  20.7060000  30.0920000  -7.5370000  34.9160000
  29.2740000  -7.6930000  34.4440000  30.1400000  -6.5850000  35.0050000
  29.9940000  -7.4350000  34.8670000  34.4420000 -12.8410000  36.1460000
  35.1550000 -13.4730000  36.2420000  34.8820000 -12.0040000  36.0000000
  34.5890000 -12.8150000  36.1390000  20.4710000 -11.0590000  29.6680000
  19.6920000 -10.5530000  29.8990000  20.2090000 -11.9720000  29.7910000
  20.3380000 -11.1110000  29.7130000  23.5670000  -6.9020000  26.7740000
  23.4800000  -6.1220000  27.3230000  23.6390000  -7.6260000  27.3970000
  23.5650000  -6.8950000  26.9240000  19.1980000 -15.8180000  21.9790000
  19.1410000 -16.0720000  21.0580000  18.6500000 -15.0360000  22.0470000
  19.1200000 -15.7500000  21.8700000  23.6690000 -11.7610000  33.9580000
  23.5780000 -11.8810000  33.0130000  22.9450000 -11.1830000  34.1960000
  23.5650000 -11.7020000  33.8670000  24.7510000 -18.2450000  25.4100000
  24.3460000 -18.5760000  26.2120000  24.8580000 -19.0190000  24.8580000
  24.7130000 -18.3860000  25.4420000  35.8360000  -2.7860000  25.1500000
  35.9060000  -3.4150000  25.8670000  35.9020000  -3.3180000  24.3570000
  35.8530000  -2.9340000  25.1400000  25.2940000 -12.1990000  23.2960000
  25.6670000 -12.2640000  22.4170000  24.3890000 -12.4950000  23.1950000
  25.2260000 -12.2460000  23.1710000  24.9930000  -5.0420000  21.7300000
  24.2610000  -5.5310000  21.3540000  25.6530000  -5.0290000  21.0380000
  24.9830000  -5.1030000  21.5940000  27.4390000 -15.3020000  25.6810000
  26.5870000 -15.4400000  25.2690000  27.4890000 -14.3550000  25.8170000
  27.3370000 -15.1980000  25.6460000  19.9390000  -1.6970000  32.3010000
  19.6460000  -1.9700000  31.4310000  19.6310000  -0.7950000  32.3850000
  19.8620000  -1.6170000  32.2000000  22.3110000 -14.6340000  34.8720000
  23.1020000 -14.6010000  34.3350000  21.9510000 -13.7480000  34.8240000
  22.3660000 -14.5170000  34.7970000  28.4840000 -11.6310000  18.9200000
  28.4650000 -10.9810000  19.6220000  28.8390000 -12.4190000  19.3320000
  28.5270000 -11.6480000  19.0620000  33.4670000 -16.3810000  36.3410000
  33.5280000 -16.7280000  35.4510000  32.5260000 -16.3330000  36.5160000
  33.3540000 -16.4190000  36.2490000  23.8540000  -4.3330000  31.6990000
  23.2840000  -3.6460000  32.0460000  23.4020000  -5.1490000  31.9130000
  23.7230000  -4.3490000  31.7710000  30.4460000  -2.7520000  22.7900000
  29.7610000  -2.8240000  23.4550000  31.2440000  -2.5740000  23.2870000
  30.4600000  -2.7390000  22.9390000  28.1570000 -17.1280000  23.7720000
  27.9320000 -16.3430000  24.2710000  29.0560000 -16.9760000  23.4800000
  28.2440000 -17.0080000  23.7990000  33.5840000 -17.4080000  28.6420000
  34.4550000 -17.8010000  28.6990000  33.4850000 -17.1770000  27.7190000
  33.6830000 -17.4290000  28.5310000  30.4920000 -17.1410000  33.7760000
  30.2320000 -17.9170000  33.2790000  31.4480000 -17.1360000  33.7280000
  30.5810000 -17.2400000  33.7070000  33.6090000 -13.5430000  23.8900000
  33.3880000 -13.7930000  24.7880000  34.4250000 -14.0090000  23.7070000
  33.6850000 -13.6350000  23.9820000  31.4550000  -3.7800000  19.0370000
  31.0550000  -2.9120000  19.0870000  30.9790000  -4.3010000  19.6840000
  31.3430000  -3.7350000  19.1260000  27.4120000 -14.9930000  29.0570000
  26.5610000 -15.4240000  28.9700000  27.5110000 -14.8460000  29.9980000
  27.3150000 -15.0290000  29.1660000  26.0430000 -17.9720000  36.2080000
  25.4900000 -17.6610000  36.9240000  26.1040000 -17.2260000  35.6110000
  25.9800000 -17.8370000  36.2230000  24.8340000  -5.4590000  24.8930000
  24.1980000  -5.9140000  25.4440000  24.3460000  -4.7250000  24.5200000
  24.6910000  -5.4230000  24.9160000  30.7120000  -3.7880000  33.0980000
  30.5090000  -4.0980000  33.9800000  31.2260000  -4.4960000  32.7080000
  30.7520000  -3.9190000  33.1610000  33.3570000  -6.1860000  35.7450000
  32.7170000  -6.7190000  36.2170000  33.3190000  -6.5090000  34.8440000
  33.2700000  -6.2960000  35.6900000  27.1240000  -3.8180000  35.8800000
  26.7370000  -4.1830000  35.0840000  26.4760000  -3.1890000  36.1950000
  26.9910000  -3.7850000  35.8190000  19.4840000  -4.4640000  33.2490000
  19.1020000  -3.6210000  33.4930000  20.3080000  -4.2380000  32.8180000
  19.5400000  -4.3270000  33.2250000  21.3870000 -14.8380000  28.6710000
  21.2930000 -15.3050000  27.8410000  22.2100000 -15.1610000  29.0360000
  21.4800000 -14.9390000  28.6120000  35.0920000  -6.3270000  23.9940000
  35.1140000  -6.2110000  24.9440000  35.2650000  -5.4540000  23.6430000
  35.1170000  -6.2000000  24.0710000  34.4670000  -0.3870000  24.3010000
  34.2030000  -0.4220000  23.3820000  35.0890000  -1.1080000  24.4000000
  34.5130000  -0.4840000  24.1960000  31.6410000  -0.3910000  21.8120000
  31.1250000  -1.0760000  22.2380000  31.1580000   0.4160000  21.9860000
  31.5130000  -0.3760000  21.8890000  23.5500000 -15.5800000  29.9270000
  24.0020000 -16.1590000  30.5410000  24.1130000 -15.5650000  29.1540000
  23.6800000 -15.6520000  29.9070000  20.1320000 -12.4800000  34.1960000
  19.5660000 -12.1190000  33.5140000  19.6360000 -12.3640000  35.0070000
  19.9960000 -12.4190000  34.2120000  31.3780000   1.1520000  30.1130000
  32.1530000   0.9960000  29.5740000  31.3470000   2.1030000  30.2190000
  31.4730000   1.2540000  30.0580000  27.9480000  -2.4360000  24.3420000
  27.7100000  -3.2490000  24.7860000  27.1430000  -2.1580000  23.9050000
  27.8150000  -2.5040000  24.3430000  33.1410000  -3.0160000  35.6490000
  33.4110000  -3.9200000  35.8090000  32.1890000  -3.0290000  35.7500000
  33.0530000  -3.1330000  35.6830000  33.4510000  -7.3100000  33.3460000
  32.8410000  -8.0460000  33.4020000  33.0190000  -6.6860000  32.7630000
  33.3180000  -7.3250000  33.2790000  22.5490000  -6.7220000  31.7710000
  22.0880000  -6.3780000  31.0060000  22.6300000  -7.6600000  31.5990000
  22.5000000  -6.7980000  31.6510000  20.7450000  -9.0810000  23.9560000
  21.7010000  -9.0490000  23.9830000  20.4740000  -8.1640000  23.9940000
  20.8330000  -8.9600000  23.9640000  25.5850000 -13.6220000  36.8990000
  24.8200000 -14.0190000  37.3170000  25.3310000 -12.7110000  36.7510000
  25.4540000 -13.5560000  36.9340000  22.1040000 -15.7910000  21.9270000
  22.4120000 -15.7260000  22.8310000  21.1860000 -16.0490000  22.0060000
  22.0260000 -15.8160000  22.0530000  31.4130000 -11.5300000  24.3110000
  32.0330000 -11.0860000  23.7320000  30.6030000 -11.0260000  24.2260000
  31.3890000 -11.4080000  24.2260000  23.7050000  -3.3940000  23.5430000
  23.0050000  -2.9960000  23.0260000  24.1370000  -3.9970000  22.9370000
  23.6710000  -3.4200000  23.3990000  32.3060000  -5.4510000  31.3650000
  32.1330000  -5.5280000  30.4270000  33.0890000  -4.9040000  31.4200000
  32.3840000  -5.3910000  31.2520000  27.1240000  -9.0670000  25.6840000
  27.6380000  -9.6670000  25.1440000  26.8500000  -8.3770000  25.0800000
  27.1540000  -9.0560000  25.5380000  34.1520000  -0.5000000  34.9750000
  34.5610000  -0.3280000  35.8230000  33.8830000  -1.4170000  35.0200000
  34.1700000  -0.5950000  35.0890000  33.1660000 -15.8380000  33.2430000
  32.8790000 -15.0120000  33.6350000  32.9430000 -15.7540000  32.3160000
  33.1000000 -15.7210000  33.1750000  19.6110000  -1.7120000  19.7300000
  20.1680000  -2.4710000  19.9020000  20.1790000  -0.9580000  19.8860000
  19.7550000  -1.7130000  19.7720000  31.5600000  -7.7260000  37.0370000
  30.7490000  -7.6880000  36.5300000  31.9240000  -8.5890000  36.8420000
  31.5030000  -7.8310000  36.9470000  24.9000000 -15.6830000  27.5950000
  24.7220000 -15.0930000  26.8630000  25.3850000 -16.4100000  27.2050000
  24.9390000 -15.7000000  27.4520000  18.5050000  -9.0930000  26.1720000
  19.1020000  -8.8370000  25.4680000  18.8080000  -8.5980000  26.9340000
  18.6200000  -8.9970000  26.1790000  21.1860000  -5.5860000  29.9770000
  21.4450000  -4.8930000  29.3690000  20.3140000  -5.3270000  30.2760000
  21.1080000  -5.4640000  29.9370000  34.8740000  -7.9960000  26.9580000
  35.7270000  -8.3370000  26.6880000  34.8960000  -8.0250000  27.9140000
  34.9860000  -8.0440000  27.0450000  27.8040000 -11.0850000  34.8630000
  27.0500000 -11.4150000  34.3740000  27.6030000 -11.2830000  35.7770000
  27.6820000 -11.1530000  34.9170000  31.3540000 -11.7620000  36.9320000
  30.5700000 -11.8010000  37.4800000  31.9910000 -12.3130000  37.3860000
  31.3350000 -11.8370000  37.0600000  33.0200000  -7.3250000  22.1730000
  33.4160000  -6.9840000  22.9750000  33.5110000  -6.9060000  21.4660000
  33.1330000  -7.2280000  22.1850000  32.7490000 -13.2390000  34.1350000
  33.4420000 -13.0450000  34.7670000  32.1130000 -12.5330000  34.2530000
  32.7560000 -13.1240000  34.2310000  33.2140000  -0.9690000  31.6100000
  32.7410000  -0.1360000  31.6030000  32.6830000  -1.5500000  31.0660000
  33.0850000  -0.9370000  31.5400000  25.3260000 -16.2980000  13.5940000
  25.5540000 -16.3260000  14.5230000  24.6970000 -17.0100000  13.4810000
  25.2750000 -16.3930000  13.6990000  22.7250000  -2.1120000  13.8540000
  21.7710000  -2.1800000  13.8220000  22.9140000  -1.8050000  14.7400000
  22.6260000  -2.0810000  13.9630000  27.4900000  -4.6680000   7.0170000
  27.3160000  -4.5070000   7.9450000  26.7250000  -5.1540000   6.7110000
  27.3700000  -4.7100000   7.0970000  23.2420000 -18.0120000  13.1000000
  22.6820000 -17.5640000  13.7340000  23.0960000 -18.9430000  13.2670000
  23.1520000 -18.0740000  13.2020000  24.0610000  -9.7710000   2.3480000
  23.9070000  -9.3140000   3.1750000  24.7730000 -10.3810000   2.5400000
  24.1320000  -9.7910000   2.4780000  27.4560000 -14.5620000  12.9530000
  26.8530000 -15.2030000  13.3280000  28.2450000 -14.6310000  13.4910000
  27.4800000 -14.6520000  13.0700000  27.9940000 -18.1250000  19.2310000
  28.8860000 -18.3540000  18.9670000  27.4720000 -18.2460000  18.4380000
  28.0420000 -18.1690000  19.0960000  34.2220000  -3.6120000   0.5340000
  33.3600000  -3.2840000   0.2780000  34.1260000  -4.5640000   0.5330000
  34.0990000  -3.6920000   0.5010000  20.9480000  -3.5150000   7.3110000
  20.9860000  -2.6220000   6.9670000  20.1490000  -3.5360000   7.8370000
  20.8510000  -3.4030000   7.3340000  25.6590000  -1.7250000   4.0000000
  24.8600000  -2.2520000   4.0100000  26.0030000  -1.8280000   3.1130000
  25.6010000  -1.8060000   3.8880000  29.8790000 -14.7360000  14.2210000
  30.0570000 -15.6180000  14.5470000  30.1980000 -14.1560000  14.9130000
  29.9430000 -14.7750000  14.3520000  29.5670000  -6.7400000   6.4670000
  29.1410000  -7.3470000   5.8630000  28.9040000  -6.0730000   6.6450000
  29.4280000  -6.7320000   6.4130000  27.5340000 -15.6890000   1.7090000
  27.2680000 -16.1520000   2.5040000  27.5500000 -16.3660000   1.0330000
  27.5020000 -15.8350000   1.7250000  27.7690000  -8.5010000  14.9930000
  27.6410000  -9.3660000  15.3820000  28.2120000  -8.6760000  14.1620000
  27.8090000  -8.6340000  14.9360000  30.6450000  -7.5490000   2.0120000
  31.4150000  -7.5280000   2.5790000  30.9640000  -7.9160000   1.1880000
  30.7840000  -7.5930000   1.9790000  18.8930000 -14.1710000  13.5500000
  19.1700000 -13.6020000  14.2680000  18.2910000 -14.7940000  13.9570000
  18.8520000 -14.1780000  13.6940000  34.3630000  -6.3120000   0.7590000
  34.4050000  -6.4460000  -0.1880000  35.2490000  -6.0450000   1.0020000
  34.4820000  -6.2950000   0.6690000  19.7660000  -7.8340000  16.1430000
  18.8450000  -8.0540000  16.0030000  19.8460000  -7.7270000  17.0900000
  19.6580000  -7.8490000  16.2460000  34.7060000 -15.8820000   2.8470000
  34.8380000 -16.0260000   3.7840000  33.8380000 -15.4830000   2.7870000
  34.6120000 -15.8500000   2.9600000  31.3560000  -4.1450000   7.3480000
  31.5320000  -3.2950000   6.9450000  30.5970000  -4.4820000   6.8740000
  31.2820000  -4.0790000   7.2360000  31.1460000  -0.8200000   8.6000000
  31.7320000  -0.0830000   8.4250000  30.3640000  -0.6340000   8.0810000
  31.1210000  -0.7020000   8.5110000  23.4680000 -13.5650000   7.1200000
  23.0610000 -13.5660000   6.2530000  22.9820000 -12.9020000   7.6110000
  23.3540000 -13.4800000   7.0720000  21.5870000 -17.1690000  15.1380000
  21.7940000 -16.2710000  15.3950000  21.2310000 -17.5700000  15.9310000
  21.5680000 -17.1060000  15.2720000  22.8950000 -16.3780000   5.8380000
  22.1370000 -16.3910000   6.4230000  23.4270000 -17.1220000   6.1190000
  22.8660000 -16.4750000   5.9490000  29.9350000 -12.6800000  16.1370000
  30.5210000 -12.3670000  16.8260000  29.2090000 -12.0550000  16.1370000
  29.9170000 -12.5600000  16.2250000  27.5550000 -12.1790000   5.6690000
  26.7300000 -12.1970000   5.1840000  27.3040000 -12.3650000   6.5740000
  27.4170000 -12.2050000   5.7230000  24.6690000  -2.5140000  10.2860000
  24.4080000  -2.8890000  11.1270000  25.4000000  -3.0590000   9.9970000
  24.7290000  -2.6320000  10.3560000  22.9070000  -4.3210000   9.0010000
  22.1830000  -4.0180000   8.4530000  23.5010000  -3.5710000   9.0490000
  22.8910000  -4.1860000   8.9370000  19.4560000 -14.1670000  19.1910000
  19.2580000 -14.0860000  18.2600000  18.6620000 -13.8640000  19.6320000
  19.3290000 -14.1180000  19.1280000  22.3800000 -10.5570000   0.3390000
  21.7770000  -9.8200000   0.2430000  23.0090000 -10.2670000   1.0000000
  22.3830000 -10.4260000   0.4110000  26.8070000  -2.0950000   1.6320000
  27.2660000  -2.9170000   1.8040000  27.5050000  -1.4550000   1.4930000
  26.9550000  -2.1180000   1.6360000  25.5300000 -11.6040000  10.6140000
  26.4110000 -11.3120000  10.8460000  25.6160000 -11.9380000   9.7210000
  25.6540000 -11.6090000  10.5290000  21.4950000  -3.8460000  19.2850000
  21.9780000  -3.2850000  18.6780000  21.0520000  -4.4820000  18.7240000
  21.5000000  -3.8550000  19.1360000  25.1210000  -2.1100000  18.0830000
  25.6950000  -2.1970000  18.8440000  25.0790000  -1.1680000  17.9210000
  25.1890000  -2.0010000  18.1590000  29.8270000 -15.7850000   8.7980000
  28.8750000 -15.8480000   8.8690000  30.1550000 -16.5130000   9.3260000
  29.7470000 -15.8860000   8.8750000  34.9560000  -7.7770000  10.9200000
  35.3960000  -7.2700000  11.6030000  34.2840000  -8.2740000  11.3860000
  34.9270000  -7.7760000  11.0670000  25.4760000  -8.2560000  17.9840000
  25.3190000  -9.2000000  17.9480000  25.3870000  -7.9640000  17.0770000
  25.4440000  -8.3400000  17.8630000  29.6830000  -4.9480000   2.0860000
  29.9870000  -5.8410000   2.2420000  30.2100000  -4.4080000   2.6750000
  29.7890000  -4.9930000   2.1810000  32.3060000 -14.4600000   2.6620000
  32.4100000 -14.1160000   3.5490000  32.1760000 -13.6840000   2.1170000
  32.3030000 -14.3170000   2.7060000  34.9480000 -13.6120000   9.9890000
  35.8600000 -13.6010000  10.2820000  34.9480000 -14.1970000   9.2310000
  35.0650000 -13.6860000   9.9300000  32.7930000  -9.2750000  11.8400000
  31.9180000  -9.5320000  11.5500000  33.1450000 -10.0580000  12.2640000
  32.7260000  -9.4080000  11.8570000  22.5010000  -2.3590000  16.9980000
  22.2500000  -1.4550000  17.1890000  23.4070000  -2.4240000  17.3010000
  22.5860000  -2.2510000  17.0610000  24.5350000 -17.2860000   0.6490000
  24.8770000 -17.2770000   1.5430000  24.0500000 -16.4640000   0.5710000
  24.5170000 -17.1790000   0.7530000  19.7040000 -17.3700000  10.5530000
  20.5380000 -16.9160000  10.4290000  19.1160000 -16.9710000   9.9130000
  19.7360000 -17.2610000  10.4560000  20.8030000 -18.2370000  17.5650000
  19.9700000 -18.6640000  17.7660000  20.7700000 -17.4100000  18.0450000
  20.6920000 -18.1860000  17.6520000  27.1380000 -12.7750000   8.3030000
  27.2240000 -13.5590000   8.8460000  27.5780000 -12.0880000   8.8030000
  27.2050000 -12.7870000   8.4360000  34.2340000 -18.6360000   2.5170000
  34.3620000 -17.7210000   2.2650000  33.2850000 -18.7310000   2.6020000
  34.1290000 -18.5310000   2.4960000  20.2130000  -0.5530000   4.8220000
  19.4320000  -0.6840000   4.2840000  20.1830000   0.3720000   5.0660000
  20.1090000  -0.4510000   4.7840000  30.2640000  -4.7510000  16.7730000
  30.8460000  -4.9150000  17.5140000  29.6700000  -4.0650000  17.0810000
  30.2620000  -4.6840000  16.9070000  26.5660000  -4.2870000   9.5120000
  26.0860000  -5.0950000   9.6890000  27.2950000  -4.3010000  10.1310000
  26.5980000  -4.3920000   9.6140000  29.3710000 -13.4340000   1.7790000
  28.7450000 -14.1580000   1.8030000  29.5890000 -13.2750000   2.6970000
  29.3190000 -13.5060000   1.8990000  26.1090000 -11.7860000  13.8990000
  25.2640000 -12.1060000  14.2160000  26.5820000 -12.5770000  13.6400000
  26.0610000 -11.9280000  13.9070000  23.0360000  -6.6000000  18.2330000
  23.8470000  -7.0880000  18.0910000  22.7670000  -6.3230000  17.3570000
  23.1050000  -6.6270000  18.1020000  21.9440000  -2.0280000   3.3560000
  21.3620000  -1.5300000   3.9290000  22.1730000  -1.4170000   2.6560000
  21.8990000  -1.8860000   3.3400000  25.2980000  -7.5600000  15.2610000
  26.1780000  -7.9330000  15.2090000  24.7600000  -8.1410000  14.7240000
  25.3420000  -7.6820000  15.1860000  34.2870000  -3.8490000  13.6180000
  33.9360000  -3.9520000  14.5030000  34.4350000  -2.9070000  13.5280000
  34.2610000  -3.7420000  13.7200000  33.6680000 -14.7520000   7.3680000
  34.3640000 -15.1380000   6.8350000  33.0580000 -15.4740000   7.5230000
  33.6780000 -14.8940000   7.3190000  31.7420000  -9.3030000  14.9100000
  31.1850000  -9.6970000  14.2380000  31.1660000  -8.6930000  15.3700000
  31.5970000  -9.2750000  14.8830000  35.6560000 -10.0420000  18.1040000
  34.8330000  -9.7020000  17.7550000  35.5120000 -10.0980000  19.0490000
  35.5330000 -10.0060000  18.1800000  29.5690000 -13.3160000   4.4430000
  28.7460000 -13.0330000   4.8390000  30.2470000 -12.9300000   4.9980000
  29.5510000 -13.2310000   4.5650000  22.5810000  -9.7250000  12.5360000
  22.2040000  -9.8520000  13.4060000  22.0180000 -10.2360000  11.9540000
  22.4610000  -9.8060000  12.5730000  31.5880000  -8.2150000   7.9910000
  32.1330000  -7.7140000   8.5980000  30.8940000  -7.6080000   7.7340000
  31.5690000  -8.0740000   8.0360000  19.5710000  -6.6490000   8.8120000
  19.9650000  -6.7190000   7.9420000  20.1830000  -7.1040000   9.3890000
  19.7000000  -6.7160000   8.7740000  34.2920000 -10.9690000   4.1840000
  34.2490000 -10.3500000   4.9140000  33.9260000 -11.7800000   4.5360000
  34.2400000 -10.9930000   4.3230000  29.0420000 -10.1050000   4.6630000
  28.3700000 -10.7860000   4.6930000  29.1210000  -9.8880000   3.7340000
  28.9660000 -10.1640000   4.5480000  22.7290000 -15.2520000  18.6260000
  22.5760000 -14.9720000  17.7240000  22.4920000 -14.4920000  19.1570000
  22.6790000 -15.1190000  18.5790000  30.2280000  -1.1260000  13.7810000
  29.6790000  -1.1950000  13.0010000  30.5920000  -2.0030000  13.8970000
  30.2050000  -1.2470000  13.6960000  24.6620000 -11.1310000  17.7320000
  24.5470000 -11.4150000  16.8250000  23.7710000 -11.0280000  18.0650000
  24.5330000 -11.1540000  17.6590000  23.7070000 -12.8040000  12.5780000
  23.1170000 -13.5430000  12.4260000  24.3190000 -12.8320000  11.8430000
  23.7100000 -12.9020000  12.4640000  25.0920000  -6.6120000  10.6100000
  25.0520000  -7.5670000  10.5730000  24.6370000  -6.3840000  11.4200000
  25.0290000  -6.7050000  10.7090000  33.0570000  -9.9590000  17.2920000
  32.3660000 -10.5990000  17.4600000  32.8490000  -9.6030000  16.4290000
  32.9420000  -9.9960000  17.2030000  18.6750000 -10.8570000   4.4290000
  19.3400000 -10.2570000   4.7670000  17.8430000 -10.4230000   4.6180000
  18.6540000 -10.7250000   4.4970000  21.0080000  -6.4120000   6.6310000
  21.6870000  -6.6920000   7.2450000  21.1060000  -5.4620000   6.5820000
  21.1070000  -6.3260000   6.7040000  26.4220000  -7.6760000   1.7180000
  26.0390000  -7.9850000   0.8970000  26.6610000  -6.7650000   1.5430000
  26.4040000  -7.5990000   1.5910000  20.6780000 -16.2210000   7.3960000
  20.4400000 -17.0400000   6.9620000  19.9170000 -15.6530000   7.2690000
  20.5500000 -16.2530000   7.3240000  25.2490000 -17.4060000   3.4000000
  25.4940000 -18.2810000   3.7010000  25.0340000 -16.9290000   4.2010000
  25.2530000 -17.4570000   3.5410000  30.4810000 -15.6570000   5.9380000
  30.1870000 -14.9420000   5.3740000  30.2100000 -15.3960000   6.8180000
  30.4090000 -15.5320000   5.9780000  28.9350000  -4.0010000  11.0200000
  28.8710000  -4.5210000  11.8220000  29.4800000  -3.2520000  11.2630000
  28.9960000  -3.9720000  11.1540000  34.4340000  -5.1050000   7.6390000
  33.5190000  -5.0950000   7.3560000  34.5560000  -5.9730000   8.0240000
  34.3320000  -5.2150000   7.6520000  22.0870000 -13.1410000   1.4340000
  21.1620000 -13.3840000   1.4720000  22.0830000 -12.2210000   1.1690000
  21.9690000 -13.0540000   1.4050000  24.0560000  -8.7880000   4.7230000
  24.8790000  -8.3020000   4.6850000  24.1070000  -9.2830000   5.5400000
  24.1680000  -8.7890000   4.8220000  20.7470000  -0.9130000   8.7990000
  20.2050000  -0.4900000   9.4660000  21.6460000  -0.7160000   9.0610000
  20.7920000  -0.8330000   8.9180000  26.3510000  -7.1510000   4.7250000
  25.8280000  -6.4480000   5.1110000  26.3630000  -6.9550000   3.7890000
  26.2860000  -7.0360000   4.6550000  33.3940000 -12.2840000   0.8890000
  33.8720000 -12.6370000   0.1400000  33.8960000 -11.5120000   1.1520000
  33.5190000 -12.2300000   0.8270000  22.2880000  -6.8480000  15.7190000
  22.2500000  -6.5310000  14.8170000  21.4160000  -7.2070000  15.8840000
  22.1710000  -6.8540000  15.6250000  26.1960000  -5.1080000  14.2940000
  25.4130000  -4.7020000  13.9250000  25.9080000  -5.9790000  14.5670000
  26.0590000  -5.1680000  14.2820000  19.9340000  -3.0960000  11.0370000
  20.5890000  -2.7350000  10.4400000  19.2560000  -3.4510000  10.4620000
  19.9310000  -3.0950000  10.8870000  35.2460000 -21.2050000  10.2880000
  35.3920000 -20.7990000  11.1430000  34.3010000 -21.1360000  10.1490000
  35.1440000 -21.1440000  10.3800000  25.2220000  -9.1510000  12.7730000
  25.5470000  -9.9540000  13.1800000  24.3530000  -9.3830000  12.4470000
  25.1520000  -9.2830000  12.7830000  20.8380000  -8.2170000  18.7420000
  21.6410000  -7.7070000  18.6320000  20.3880000  -7.7990000  19.4760000
  20.8830000  -8.0980000  18.8220000  31.3340000 -11.0690000   8.0020000
  31.8320000 -11.2760000   7.2110000  31.5180000 -10.1440000   8.1660000
  31.4210000 -10.9770000   7.9220000  25.9590000 -12.3230000   1.7430000
  25.4780000 -13.1400000   1.6120000  26.3930000 -12.1640000   0.9050000
  25.9530000 -12.4070000   1.6190000  19.9230000  -7.2860000   2.2010000
  20.6900000  -7.6090000   2.6760000  19.1810000  -7.5250000   2.7560000
  19.9260000  -7.3580000   2.3330000  19.2610000 -13.5300000  10.8970000
  20.0590000 -13.8800000  10.5020000  19.2410000 -13.9100000  11.7750000
  19.3600000 -13.6240000  10.9590000  28.6550000 -10.4730000   8.6250000
  28.2480000  -9.7130000   8.2090000  29.5170000 -10.5380000   8.2150000
  28.7130000 -10.3840000   8.5190000  33.1920000  -9.2340000   6.1070000
  33.8660000  -8.8220000   6.6470000  32.3820000  -8.7880000   6.3530000
  33.1750000  -9.1240000   6.2070000  21.3460000  -8.7430000   9.6100000
  22.3030000  -8.7590000   9.5910000  21.1010000  -9.5570000  10.0500000
  21.4370000  -8.8490000   9.6640000  31.6490000 -14.7330000  12.1490000
  31.1950000 -14.2910000  11.4310000  31.1070000 -14.5580000  12.9180000
  31.5220000 -14.6540000  12.1550000  30.1880000 -13.2570000   9.9590000
  30.8140000 -12.8070000   9.3920000  30.0460000 -14.1040000   9.5350000
  30.2500000 -13.3080000   9.8320000  28.7230000  -5.3800000  13.4580000
  29.1160000  -4.5590000  13.7540000  27.8100000  -5.3250000  13.7400000
  28.6570000  -5.2680000  13.5320000  30.2120000 -16.5120000   2.7150000
  29.4530000 -16.2640000   2.1870000  30.7670000 -15.7320000   2.7160000
  30.1860000 -16.3800000   2.6480000  22.7470000 -13.2190000   4.4320000
  22.6570000 -13.4900000   3.5190000  21.8490000 -13.0620000   4.7250000
  22.6200000 -13.2330000   4.3530000  32.3340000 -17.3280000   7.2280000
  31.6720000 -16.9220000   6.6680000  33.0290000 -17.5910000   6.6250000
  32.3380000 -17.3090000   7.0790000  33.9470000 -12.0960000  12.6070000
  33.6820000 -12.7480000  13.2570000  34.1660000 -12.6090000  11.8290000
  33.9410000 -12.2450000  12.5910000  24.6930000 -10.3030000   6.8320000
  24.8810000 -11.0550000   6.2700000  25.5490000  -9.9120000   7.0020000
  24.8260000 -10.3490000   6.7820000  26.3490000 -15.4430000  16.0720000
  27.2710000 -15.3670000  16.3160000  25.8970000 -14.8260000  16.6470000
  26.4090000 -15.3550000  16.1760000  23.3400000 -18.4330000   8.9910000
  23.5110000 -17.5120000   9.1900000  23.9060000 -18.9170000   9.5920000
  23.4340000 -18.3770000   9.0930000  27.1430000  -5.0960000   1.1150000
  27.9870000  -5.1340000   1.5660000  27.3660000  -4.8910000   0.2070000
  27.2800000  -5.0750000   1.0570000  24.1940000  -9.3060000   9.3840000
  24.4510000  -9.7240000   8.5620000  24.2780000  -9.9980000  10.0400000
  24.2380000  -9.4480000   9.3630000  31.5060000  -4.8510000   9.8430000
  31.6040000  -4.6040000   8.9230000  30.6520000  -4.5010000  10.0950000
  31.4090000  -4.7750000   9.7580000  28.8960000  -0.4370000   7.1820000
  28.7110000  -1.2640000   6.7360000  28.5840000   0.2360000   6.5770000
  28.8320000  -0.4570000   7.0470000  35.0000000 -18.5670000  18.8070000
  34.4590000 -19.0820000  19.4050000  34.5360000 -17.7340000  18.7200000
  34.8720000 -18.5260000  18.8730000  30.4840000  -1.2020000   0.2720000
  30.6420000  -0.3630000  -0.1610000  30.7460000  -1.0550000   1.1810000
  30.5380000  -1.0760000   0.3330000  32.5940000  -2.4250000  10.3820000
  32.0500000  -1.8250000   9.8710000  32.2030000  -3.2860000  10.2360000
  32.4750000  -2.4580000  10.2980000  26.6860000  -0.0570000   9.3550000
  26.6520000  -0.7440000  10.0200000  27.1620000  -0.4520000   8.6250000
  26.7420000  -0.1950000   9.3470000  28.5650000  -9.3290000   2.0430000
  29.2950000  -8.7090000   2.0320000  27.7830000  -8.7780000   2.0120000
  28.5580000  -9.1790000   2.0370000  28.1970000 -11.9480000  11.1590000
  27.7480000 -12.7020000  11.5410000  28.9190000 -12.3280000  10.6590000
  28.2320000 -12.0930000  11.1440000  29.7320000  -7.8240000  12.8710000
  29.4560000  -7.0000000  13.2730000  30.6830000  -7.8370000  12.9800000
  29.8190000  -7.7200000  12.9360000  25.2200000 -15.2110000   5.1420000
  25.0720000 -14.2680000   5.0640000  24.4280000 -15.5430000   5.5660000
  25.1000000 -15.1330000   5.1860000  29.0880000  -0.6010000  11.1200000
  29.8780000  -0.0630000  11.0660000  28.4880000  -0.2090000  10.4860000
  29.1120000  -0.4820000  11.0320000  28.8710000 -14.8670000  17.5610000
  28.4050000 -14.2690000  18.1450000  29.4660000 -14.3030000  17.0660000
  28.8870000 -14.7190000  17.5720000  24.4760000 -14.7220000   1.7370000
  23.5590000 -14.9370000   1.9030000  24.9510000 -15.1100000   2.4720000
  24.4190000 -14.7990000   1.8520000  21.1180000  -9.9760000  15.0080000
  20.4390000  -9.3370000  15.2280000  20.7090000 -10.8250000  15.1710000
  20.9780000 -10.0030000  15.0570000  32.0780000  -1.9710000   5.9720000
  31.7100000  -1.3900000   6.6370000  32.9690000  -1.6480000   5.8380000
  32.1450000  -1.8550000   6.0400000  19.2660000 -17.0670000  13.5900000
  20.1280000 -17.1060000  14.0040000  19.4520000 -16.9170000  12.6630000
  19.4000000 -17.0530000  13.5240000  30.1830000  -9.5340000  10.9570000
  29.9150000  -8.8910000  11.6140000  29.3840000  -9.7160000  10.4610000
  30.0460000  -9.4750000  10.9770000  18.7250000 -11.8960000  17.5770000
  18.1250000 -11.1630000  17.7180000  19.2720000 -11.9130000  18.3630000
  18.7180000 -11.8040000  17.6960000  20.0810000 -12.9950000   5.6200000
  20.4810000 -12.4100000   6.2640000  19.6170000 -12.4100000   5.0210000
  20.0730000 -12.8450000   5.6260000  30.1600000 -11.2000000  13.5190000
  29.9970000 -10.8910000  12.6280000  29.2990000 -11.4640000  13.8420000
  30.0290000 -11.1940000  13.4470000  30.3820000 -16.9790000  17.6570000
  30.3790000 -17.2690000  16.7450000  29.7100000 -16.2980000  17.6940000
  30.2950000 -16.9290000  17.5450000  22.0410000 -18.3160000   1.6650000
  22.0420000 -17.5740000   2.2690000  22.5450000 -18.0120000   0.9110000
  22.1060000 -18.1820000   1.6460000  22.9570000  -6.2800000   1.9490000
  23.0430000  -6.3310000   0.9970000  22.4040000  -5.5120000   2.0980000
  22.8970000  -6.1880000   1.8460000  30.0920000  -7.5370000  16.0550000
  29.2740000  -7.6930000  15.5840000  30.1400000  -6.5850000  16.1440000
  29.9940000  -7.4350000  16.0060000  34.4420000 -12.8410000  17.2860000
  35.1550000 -13.4730000  17.3810000  34.8820000 -12.0040000  17.1400000
  34.5890000 -12.8150000  17.2790000  20.4710000 -11.0590000  10.8080000
  19.6920000 -10.5530000  11.0390000  20.2090000 -11.9720000  10.9310000
  20.3380000 -11.1110000  10.8530000  23.5670000  -6.9020000   7.9140000
  23.4800000  -6.1220000   8.4630000  23.6390000  -7.6260000   8.5370000
  23.5650000  -6.8950000   8.0640000  19.1980000 -15.8180000   3.1190000
  19.1410000 -16.0720000   2.1980000  18.6500000 -15.0360000   3.1870000
  19.1200000 -15.7500000   3.0100000  23.6690000 -11.7610000  15.0980000
  23.5780000 -11.8810000  14.1530000  22.9450000 -11.1830000  15.3360000
  23.5650000 -11.7020000  15.0070000  24.7510000 -18.2450000   6.5500000
  24.3460000 -18.5760000   7.3520000  24.8580000 -19.0190000   5.9980000
  24.7130000 -18.3860000   6.5820000  25.2940000 -12.1990000   4.4360000
  25.6670000 -12.2640000   3.5570000  24.3890000 -12.4950000   4.3350000
  25.2260000 -12.2460000   4.3110000  24.9930000  -5.0420000   2.8700000
  24.2610000  -5.5310000   2.4940000  25.6530000  -5.0290000   2.1780000
  24.9830000  -5.1030000   2.7340000  27.4390000 -15.3020000   6.8210000
  26.5870000 -15.4400000   6.4090000  27.4890000 -14.3550000   6.9570000
  27.3370000 -15.1980000   6.7860000  19.9390000  -1.6970000  13.4410000
  19.6460000  -1.9700000  12.5710000  19.6310000  -0.7950000  13.5250000
  19.8620000  -1.6170000  13.3400000  22.3110000 -14.6340000  16.0120000
  23.1020000 -14.6010000  15.4750000  21.9510000 -13.7480000  15.9640000
  22.3660000 -14.5170000  15.9370000  28.4840000 -11.6310000   0.0600000
  28.4650000 -10.9810000   0.7620000  28.8390000 -12.4190000   0.4720000
  28.5270000 -11.6480000   0.2020000  33.4670000 -16.3810000  17.4810000
  33.5280000 -16.7280000  16.5910000  32.5260000 -16.3330000  17.6550000
  33.3540000 -16.4190000  17.3890000  23.8540000  -4.3330000  12.8390000
  23.2840000  -3.6460000  13.1860000  23.4020000  -5.1490000  13.0530000
  23.7230000  -4.3490000  12.9110000  30.4460000  -2.7520000   3.9300000
  29.7610000  -2.8240000   4.5950000  31.2440000  -2.5740000   4.4270000
  30.4600000  -2.7390000   4.0790000  28.1570000 -17.1280000   4.9120000
  27.9320000 -16.3430000   5.4110000  29.0560000 -16.9760000   4.6200000
  28.2440000 -17.0080000   4.9390000  33.5840000 -17.4080000   9.7820000
  34.4550000 -17.8010000   9.8390000  33.4850000 -17.1770000   8.8590000
  33.6830000 -17.4290000   9.6710000  30.4920000 -17.1410000  14.9160000
  30.2320000 -17.9170000  14.4190000  31.4480000 -17.1360000  14.8680000
  30.5810000 -17.2400000  14.8460000  33.6090000 -13.5430000   5.0300000
  33.3880000 -13.7930000   5.9280000  34.4250000 -14.0090000   4.8470000
  33.6850000 -13.6350000   5.1220000  31.4550000  -3.7800000   0.1770000
  31.0550000  -2.9120000   0.2270000  30.9790000  -4.3010000   0.8240000
  31.3430000  -3.7350000   0.2660000  27.4120000 -14.9930000  10.1970000
  26.5610000 -15.4240000  10.1100000  27.5110000 -14.8460000  11.1380000
  27.3150000 -15.0290000  10.3060000  26.0430000 -17.9720000  17.3480000
  25.4900000 -17.6610000  18.0640000  26.1040000 -17.2260000  16.7510000
  25.9800000 -17.8370000  17.3630000  24.8340000  -5.4590000   6.0330000
  24.1980000  -5.9140000   6.5840000  24.3460000  -4.7250000   5.6600000
  24.6910000  -5.4230000   6.0560000  30.7120000  -3.7880000  14.2380000
  30.5090000  -4.0980000  15.1200000  31.2260000  -4.4960000  13.8480000
  30.7520000  -3.9190000  14.3010000  33.3570000  -6.1860000  16.8850000
  32.7170000  -6.7190000  17.3570000  33.3190000  -6.5090000  15.9840000
  33.2700000  -6.2960000  16.8300000  27.1240000  -3.8180000  17.0200000
  26.7370000  -4.1830000  16.2240000  26.4760000  -3.1890000  17.3350000
  26.9910000  -3.7850000  16.9590000  19.4840000  -4.4640000  14.3890000
  19.1020000  -3.6210000  14.6330000  20.3080000  -4.2380000  13.9580000
  19.5400000  -4.3270000  14.3650000  21.3870000 -14.8380000   9.8110000
  21.2930000 -15.3050000   8.9810000  22.2100000 -15.1610000  10.1760000
  21.4800000 -14.9390000   9.7520000  35.0920000  -6.3270000   5.1340000
  35.1140000  -6.2110000   6.0840000  35.2650000  -5.4540000   4.7830000
  35.1170000  -6.2000000   5.2110000  34.4670000  -0.3870000   5.4410000
  34.2030000  -0.4220000   4.5220000  35.0890000  -1.1080000   5.5400000
  34.5130000  -0.4840000   5.3360000  31.6410000  -0.3910000   2.9520000
  31.1250000  -1.0760000   3.3780000  31.1580000   0.4160000   3.1260000
  31.5130000  -0.3760000   3.0290000  23.5500000 -15.5800000  11.0670000
  24.0020000 -16.1590000  11.6810000  24.1130000 -15.5650000  10.2940000
  23.6800000 -15.6520000  11.0470000  20.1320000 -12.4800000  15.3360000
  19.5660000 -12.1190000  14.6540000  19.6360000 -12.3640000  16.1460000
  19.9960000 -12.4190000  15.3520000  31.3780000   1.1520000  11.2530000
  32.1530000   0.9960000  10.7140000  31.3470000   2.1030000  11.3590000
  31.4730000   1.2540000  11.1980000  27.9480000  -2.4360000   5.4820000
  27.7100000  -3.2490000   5.9260000  27.1430000  -2.1580000   5.0450000
  27.8150000  -2.5040000   5.4830000  33.1410000  -3.0160000  16.7890000
  33.4110000  -3.9200000  16.9490000  32.1890000  -3.0290000  16.8900000
  33.0530000  -3.1330000  16.8230000  33.4510000  -7.3100000  14.4860000
  32.8410000  -8.0460000  14.5420000  33.0190000  -6.6860000  13.9030000
  33.3180000  -7.3250000  14.4190000  22.5490000  -6.7220000  12.9110000
  22.0880000  -6.3780000  12.1460000  22.6300000  -7.6600000  12.7390000
  22.5000000  -6.7980000  12.7910000  20.7450000  -9.0810000   5.0960000
  21.7010000  -9.0490000   5.1230000  20.4740000  -8.1640000   5.1340000
  20.8330000  -8.9600000   5.1040000  25.5850000 -13.6220000  18.0400000
  24.8200000 -14.0190000  18.4570000  25.3310000 -12.7110000  17.8910000
  25.4540000 -13.5560000  18.0740000  22.1040000 -15.7910000   3.0670000
  22.4120000 -15.7260000   3.9710000  21.1860000 -16.0490000   3.1460000
  22.0260000 -15.8160000   3.1930000  31.4130000 -11.5300000   5.4510000
  32.0330000 -11.0860000   4.8720000  30.6030000 -11.0260000   5.3660000
  31.3890000 -11.4080000   5.3660000  18.0330000  -5.4780000   1.4120000
  18.6610000  -6.0010000   1.9110000  18.5270000  -5.1720000   0.6510000
  18.1770000  -5.5060000   1.3790000  23.7050000  -3.3940000   4.6830000
  23.0050000  -2.9960000   4.1660000  24.1370000  -3.9970000   4.0770000
  23.6710000  -3.4200000   4.5390000  32.3060000  -5.4510000  12.5050000
  32.1330000  -5.5280000  11.5670000  33.0890000  -4.9040000  12.5600000
  32.3840000  -5.3910000  12.3920000  27.1240000  -9.0670000   6.8240000
  27.6380000  -9.6670000   6.2840000  26.8500000  -8.3770000   6.2200000
  27.1540000  -9.0560000   6.6780000  34.1520000  -0.5000000  16.1150000
  34.5610000  -0.3280000  16.9630000  33.8830000  -1.4170000  16.1600000
  34.1700000  -0.5950000  16.2290000  33.1660000 -15.8380000  14.3830000
  32.8790000 -15.0120000  14.7740000  32.9430000 -15.7540000  13.4560000
  33.1000000 -15.7210000  14.3150000  19.6110000  -1.7120000   0.8700000
  20.1680000  -2.4710000   1.0420000  20.1790000  -0.9580000   1.0260000
  19.7550000  -1.7130000   0.9120000  31.5600000  -7.7260000  18.1770000
  30.7490000  -7.6880000  17.6700000  31.9240000  -8.5890000  17.9820000
  31.5030000  -7.8310000  18.0870000  24.9000000 -15.6830000   8.7350000
  24.7220000 -15.0930000   8.0030000  25.3850000 -16.4100000   8.3450000
  24.9390000 -15.7000000   8.5920000  21.1860000  -5.5860000  11.1170000
  21.4450000  -4.8930000  10.5090000  20.3140000  -5.3270000  11.4160000
  21.1080000  -5.4640000  11.0770000  34.8740000  -7.9960000   8.0980000
  35.7270000  -8.3370000   7.8280000  34.8960000  -8.0250000   9.0540000
  34.9860000  -8.0440000   8.1850000  27.8040000 -11.0850000  16.0030000
  27.0500000 -11.4150000  15.5140000  27.6030000 -11.2830000  16.9170000
  27.6820000 -11.1530000  16.0570000  31.3540000 -11.7620000  18.0720000
  30.5700000 -11.8010000  18.6200000  31.9910000 -12.3130000  18.5260000
  31.3350000 -11.8370000  18.2000000  33.0200000  -7.3250000   3.3130000
  33.4160000  -6.9840000   4.1150000  33.5110000  -6.9060000   2.6060000
  33.1330000  -7.2280000   3.3250000  32.7490000 -13.2390000  15.2750000
  33.4420000 -13.0450000  15.9070000  32.1130000 -12.5330000  15.3930000
  32.7560000 -13.1240000  15.3710000  33.2140000  -0.9690000  12.7500000
  32.7410000  -0.1360000  12.7430000  32.6830000  -1.5500000  12.2060000
  33.0850000  -0.9370000  12.6800000  25.3260000 -16.2980000  -5.2660000
  25.5540000 -16.3260000  -4.3370000  24.6970000 -17.0100000  -5.3790000
  25.2750000 -16.3930000  -5.1610000  22.7250000  -2.1120000  -5.0060000
  21.7710000  -2.1800000  -5.0380000  22.9140000  -1.8050000  -4.1200000
  22.6260000  -2.0810000  -4.8970000  27.4900000  -4.6680000 -11.8430000
  27.3160000  -4.5070000 -10.9150000  26.7250000  -5.1540000 -12.1490000
  27.3700000  -4.7100000 -11.7630000  23.2420000 -18.0120000  -5.7600000
  22.6820000 -17.5640000  -5.1260000  23.0960000 -18.9430000  -5.5930000
  23.1520000 -18.0740000  -5.6580000  24.0610000  -9.7710000 -16.5120000
  23.9070000  -9.3140000 -15.6850000  24.7730000 -10.3810000 -16.3200000
  24.1320000  -9.7910000 -16.3820000  27.4560000 -14.5620000  -5.9070000
  26.8530000 -15.2030000  -5.5320000  28.2450000 -14.6310000  -5.3690000
  27.4800000 -14.6520000  -5.7900000  27.9940000 -18.1250000   0.3710000
  28.8860000 -18.3540000   0.1070000  27.4720000 -18.2460000  -0.4220000
  28.0420000 -18.1690000   0.2360000  34.2220000  -3.6120000 -18.3260000
  33.3600000  -3.2840000 -18.5820000  34.1260000  -4.5640000 -18.3270000
  34.0990000  -3.6920000 -18.3590000  20.9480000  -3.5150000 -11.5490000
  20.9860000  -2.6220000 -11.8930000  20.1490000  -3.5360000 -11.0230000
  20.8510000  -3.4030000 -11.5260000  25.6590000  -1.7250000 -14.8600000
  24.8600000  -2.2520000 -14.8500000  26.0030000  -1.8280000 -15.7470000
  25.6010000  -1.8060000 -14.9720000  29.8790000 -14.7360000  -4.6390000
  30.0570000 -15.6180000  -4.3130000  30.1980000 -14.1560000  -3.9470000
  29.9430000 -14.7750000  -4.5080000  29.5670000  -6.7400000 -12.3930000
  29.1410000  -7.3470000 -12.9970000  28.9040000  -6.0730000 -12.2150000
  29.4280000  -6.7320000 -12.4470000  27.5340000 -15.6890000 -17.1510000
  27.2680000 -16.1520000 -16.3560000  27.5500000 -16.3660000 -17.8270000
  27.5020000 -15.8350000 -17.1350000  27.7690000  -8.5010000  -3.8670000
  27.6410000  -9.3660000  -3.4780000  28.2120000  -8.6760000  -4.6980000
  27.8090000  -8.6340000  -3.9240000  30.6450000  -7.5490000 -16.8480000
  31.4150000  -7.5280000 -16.2810000  30.9640000  -7.9160000 -17.6720000
  30.7840000  -7.5930000 -16.8810000  18.8930000 -14.1710000  -5.3100000
  19.1700000 -13.6020000  -4.5920000  18.2910000 -14.7940000  -4.9030000
  18.8520000 -14.1780000  -5.1660000  34.3630000  -6.3120000 -18.1010000
  34.4050000  -6.4460000 -19.0480000  35.2490000  -6.0450000 -17.8580000
  34.4820000  -6.2950000 -18.1910000  19.7660000  -7.8340000  -2.7170000
  18.8450000  -8.0540000  -2.8570000  19.8460000  -7.7270000  -1.7700000
  19.6580000  -7.8490000  -2.6140000  34.7060000 -15.8820000 -16.0130000
  34.8380000 -16.0260000 -15.0760000  33.8380000 -15.4830000 -16.0730000
  34.6120000 -15.8500000 -15.9000000  31.3560000  -4.1450000 -11.5120000
  31.5320000  -3.2950000 -11.9150000  30.5970000  -4.4820000 -11.9860000
  31.2820000  -4.0790000 -11.6240000  31.1460000  -0.8200000 -10.2600000
  31.7320000  -0.0830000 -10.4350000  30.3640000  -0.6340000 -10.7790000
  31.1210000  -0.7020000 -10.3490000  23.4680000 -13.5650000 -11.7400000
  23.0610000 -13.5660000 -12.6070000  22.9820000 -12.9020000 -11.2490000
  23.3540000 -13.4800000 -11.7880000  21.5870000 -17.1690000  -3.7220000
  21.7940000 -16.2710000  -3.4650000  21.2310000 -17.5700000  -2.9290000
  21.5680000 -17.1060000  -3.5880000  22.8950000 -16.3780000 -13.0220000
  22.1370000 -16.3910000 -12.4370000  23.4270000 -17.1220000 -12.7410000
  22.8660000 -16.4750000 -12.9110000  29.9350000 -12.6800000  -2.7230000
  30.5210000 -12.3670000  -2.0340000  29.2090000 -12.0550000  -2.7230000
  29.9170000 -12.5600000  -2.6350000  27.5550000 -12.1790000 -13.1910000
  26.7300000 -12.1970000 -13.6760000  27.3040000 -12.3650000 -12.2860000
  27.4170000 -12.2050000 -13.1370000  24.6690000  -2.5140000  -8.5740000
  24.4080000  -2.8890000  -7.7330000  25.4000000  -3.0590000  -8.8630000
  24.7290000  -2.6320000  -8.5040000  22.9070000  -4.3210000  -9.8590000
  22.1830000  -4.0180000 -10.4070000  23.5010000  -3.5710000  -9.8110000
  22.8910000  -4.1860000  -9.9230000  19.4560000 -14.1670000   0.3310000
  19.2580000 -14.0860000  -0.6010000  18.6620000 -13.8640000   0.7720000
  19.3290000 -14.1180000   0.2680000  22.3800000 -10.5570000 -18.5210000
  21.7770000  -9.8200000 -18.6170000  23.0090000 -10.2670000 -17.8600000
  22.3830000 -10.4260000 -18.4490000  26.8070000  -2.0950000 -17.2280000
  27.2660000  -2.9170000 -17.0560000  27.5050000  -1.4550000 -17.3670000
  26.9550000  -2.1180000 -17.2240000  25.5300000 -11.6040000  -8.2460000
  26.4110000 -11.3120000  -8.0140000  25.6160000 -11.9380000  -9.1390000
  25.6540000 -11.6090000  -8.3310000  19.4240000  -5.1410000  -0.9120000
  18.6620000  -4.5730000  -1.0290000  19.6290000  -5.4510000  -1.7940000
  19.3520000  -5.1080000  -1.0400000  21.4950000  -3.8460000   0.4250000
  21.9780000  -3.2850000  -0.1820000  21.0520000  -4.4820000  -0.1360000
  21.5000000  -3.8550000   0.2760000  25.1210000  -2.1100000  -0.7770000
  25.6950000  -2.1970000  -0.0160000  25.0790000  -1.1680000  -0.9390000
  25.1890000  -2.0010000  -0.7010000  29.8270000 -15.7850000 -10.0620000
  28.8750000 -15.8480000  -9.9910000  30.1550000 -16.5130000  -9.5340000
  29.7470000 -15.8860000  -9.9850000  34.9560000  -7.7770000  -7.9400000
  35.3960000  -7.2700000  -7.2570000  34.2840000  -8.2740000  -7.4740000
  34.9270000  -7.7760000  -7.7930000  25.4760000  -8.2560000  -0.8760000
  25.3190000  -9.2000000  -0.9120000  25.3870000  -7.9640000  -1.7830000
  25.4440000  -8.3400000  -0.9970000  29.6830000  -4.9480000 -16.7740000
  29.9870000  -5.8410000 -16.6180000  30.2100000  -4.4080000 -16.1850000
  29.7890000  -4.9930000 -16.6790000  32.3060000 -14.4600000 -16.1980000
  32.4100000 -14.1160000 -15.3110000  32.1760000 -13.6840000 -16.7430000
  32.3030000 -14.3170000 -16.1540000  34.9480000 -13.6120000  -8.8710000
  35.8600000 -13.6010000  -8.5780000  34.9480000 -14.1970000  -9.6290000
  35.0650000 -13.6860000  -8.9300000  32.7930000  -9.2750000  -7.0200000
  31.9180000  -9.5320000  -7.3100000  33.1450000 -10.0580000  -6.5960000
  32.7260000  -9.4080000  -7.0030000  22.5010000  -2.3590000  -1.8620000
  22.2500000  -1.4550000  -1.6710000  23.4070000  -2.4240000  -1.5590000
  22.5860000  -2.2510000  -1.7990000  24.5350000 -17.2860000 -18.2110000
  24.8770000 -17.2770000 -17.3170000  24.0500000 -16.4640000 -18.2890000
  24.5170000 -17.1790000 -18.1070000  19.7040000 -17.3700000  -8.3070000
  20.5380000 -16.9160000  -8.4310000  19.1160000 -16.9710000  -8.9470000
  19.7360000 -17.2610000  -8.4040000  20.8030000 -18.2370000  -1.2950000
  19.9700000 -18.6640000  -1.0940000  20.7700000 -17.4100000  -0.8150000
  20.6920000 -18.1860000  -1.2080000  27.1380000 -12.7750000 -10.5570000
  27.2240000 -13.5590000 -10.0140000  27.5780000 -12.0880000 -10.0570000
  27.2050000 -12.7870000 -10.4240000  34.2340000 -18.6360000 -16.3430000
  34.3620000 -17.7210000 -16.5950000  33.2850000 -18.7310000 -16.2580000
  34.1290000 -18.5310000 -16.3640000  20.2130000  -0.5530000 -14.0380000
  19.4320000  -0.6840000 -14.5760000  20.1830000   0.3720000 -13.7940000
  20.1090000  -0.4510000 -14.0760000  30.2640000  -4.7510000  -2.0870000
  30.8460000  -4.9150000  -1.3460000  29.6700000  -4.0650000  -1.7790000
  30.2620000  -4.6840000  -1.9530000  26.5660000  -4.2870000  -9.3480000
  26.0860000  -5.0950000  -9.1710000  27.2950000  -4.3010000  -8.7290000
  26.5980000  -4.3920000  -9.2460000  29.3710000 -13.4340000 -17.0810000
  28.7450000 -14.1580000 -17.0570000  29.5890000 -13.2750000 -16.1630000
  29.3190000 -13.5060000 -16.9610000  26.1090000 -11.7860000  -4.9610000
  25.2640000 -12.1060000  -4.6440000  26.5820000 -12.5770000  -5.2200000
  26.0610000 -11.9280000  -4.9530000  23.0360000  -6.6000000  -0.6270000
  23.8470000  -7.0880000  -0.7690000  22.7670000  -6.3230000  -1.5030000
  23.1050000  -6.6270000  -0.7580000  21.9440000  -2.0280000 -15.5040000
  21.3620000  -1.5300000 -14.9310000  22.1730000  -1.4170000 -16.2040000
  21.8990000  -1.8860000 -15.5200000  25.2980000  -7.5600000  -3.5990000
  26.1780000  -7.9330000  -3.6510000  24.7600000  -8.1410000  -4.1360000
  25.3420000  -7.6820000  -3.6740000  34.2870000  -3.8490000  -5.2420000
  33.9360000  -3.9520000  -4.3570000  34.4350000  -2.9070000  -5.3320000
  34.2610000  -3.7420000  -5.1400000  33.6680000 -14.7520000 -11.4920000
  34.3640000 -15.1380000 -12.0250000  33.0580000 -15.4740000 -11.3370000
  33.6780000 -14.8940000 -11.5410000  31.7420000  -9.3030000  -3.9500000
  31.1850000  -9.6970000  -4.6220000  31.1660000  -8.6930000  -3.4900000
  31.5970000  -9.2750000  -3.9770000  35.6560000 -10.0420000  -0.7560000
  34.8330000  -9.7020000  -1.1050000  35.5120000 -10.0980000   0.1890000
  35.5330000 -10.0060000  -0.6800000  29.5690000 -13.3160000 -14.4170000
  28.7460000 -13.0330000 -14.0210000  30.2470000 -12.9300000 -13.8620000
  29.5510000 -13.2310000 -14.2950000  22.5810000  -9.7250000  -6.3240000
  22.2040000  -9.8520000  -5.4540000  22.0180000 -10.2360000  -6.9060000
  22.4610000  -9.8060000  -6.2870000  31.5880000  -8.2150000 -10.8690000
  32.1330000  -7.7140000 -10.2620000  30.8940000  -7.6080000 -11.1260000
  31.5690000  -8.0740000 -10.8240000  19.5710000  -6.6490000 -10.0480000
  19.9650000  -6.7190000 -10.9180000  20.1830000  -7.1040000  -9.4710000
  19.7000000  -6.7160000 -10.0860000  34.2920000 -10.9690000 -14.6760000
  34.2490000 -10.3500000 -13.9460000  33.9260000 -11.7800000 -14.3240000
  34.2400000 -10.9930000 -14.5370000  29.0420000 -10.1050000 -14.1970000
  28.3700000 -10.7860000 -14.1670000  29.1210000  -9.8880000 -15.1260000
  28.9660000 -10.1640000 -14.3120000  22.7290000 -15.2520000  -0.2340000
  22.5760000 -14.9720000  -1.1360000  22.4920000 -14.4920000   0.2970000
  22.6790000 -15.1190000  -0.2810000  30.2280000  -1.1260000  -5.0790000
  29.6790000  -1.1950000  -5.8590000  30.5920000  -2.0030000  -4.9630000
  30.2050000  -1.2470000  -5.1640000  24.6620000 -11.1310000  -1.1280000
  24.5470000 -11.4150000  -2.0350000  23.7710000 -11.0280000  -0.7950000
  24.5330000 -11.1540000  -1.2020000  23.7070000 -12.8040000  -6.2820000
  23.1170000 -13.5430000  -6.4340000  24.3190000 -12.8320000  -7.0170000
  23.7100000 -12.9020000  -6.3960000  25.0920000  -6.6120000  -8.2500000
  25.0520000  -7.5670000  -8.2870000  24.6370000  -6.3840000  -7.4400000
  25.0290000  -6.7050000  -8.1510000  33.0570000  -9.9590000  -1.5680000
  32.3660000 -10.5990000  -1.4000000  32.8490000  -9.6030000  -2.4310000
  32.9420000  -9.9960000  -1.6570000  18.6750000 -10.8570000 -14.4310000
  19.3400000 -10.2570000 -14.0930000  17.8430000 -10.4230000 -14.2420000
  18.6540000 -10.7250000 -14.3630000  21.0080000  -6.4120000 -12.2290000
  21.6870000  -6.6920000 -11.6150000  21.1060000  -5.4620000 -12.2780000
  21.1070000  -6.3260000 -12.1560000  26.4220000  -7.6760000 -17.1420000
  26.0390000  -7.9850000 -17.9630000  26.6610000  -6.7650000 -17.3170000
  26.4040000  -7.5990000 -17.2690000  20.6780000 -16.2210000 -11.4640000
  20.4400000 -17.0400000 -11.8980000  19.9170000 -15.6530000 -11.5910000
  20.5500000 -16.2530000 -11.5360000  25.2490000 -17.4060000 -15.4600000
  25.4940000 -18.2810000 -15.1590000  25.0340000 -16.9290000 -14.6590000
  25.2530000 -17.4570000 -15.3190000  30.4810000 -15.6570000 -12.9220000
  30.1870000 -14.9420000 -13.4860000  30.2100000 -15.3960000 -12.0420000
  30.4090000 -15.5320000 -12.8820000  28.9350000  -4.0010000  -7.8400000
  28.8710000  -4.5210000  -7.0380000  29.4800000  -3.2520000  -7.5970000
  28.9960000  -3.9720000  -7.7060000  34.4340000  -5.1050000 -11.2210000
  33.5190000  -5.0950000 -11.5040000  34.5560000  -5.9730000 -10.8360000
  34.3320000  -5.2150000 -11.2080000  22.0870000 -13.1410000 -17.4260000
  21.1620000 -13.3840000 -17.3880000  22.0830000 -12.2210000 -17.6910000
  21.9690000 -13.0540000 -17.4550000  24.0560000  -8.7880000 -14.1370000
  24.8790000  -8.3020000 -14.1750000  24.1070000  -9.2830000 -13.3200000
  24.1680000  -8.7890000 -14.0380000  20.7470000  -0.9130000 -10.0610000
  20.2050000  -0.4900000  -9.3940000  21.6460000  -0.7160000  -9.7990000
  20.7920000  -0.8330000  -9.9420000  26.3510000  -7.1510000 -14.1350000
  25.8280000  -6.4480000 -13.7490000  26.3630000  -6.9550000 -15.0710000
  26.2860000  -7.0360000 -14.2050000  33.3940000 -12.2840000 -17.9710000
  33.8720000 -12.6370000 -18.7200000  33.8960000 -11.5120000 -17.7080000
  33.5190000 -12.2300000 -18.0330000  22.2880000  -6.8480000  -3.1410000
  22.2500000  -6.5310000  -4.0430000  21.4160000  -7.2070000  -2.9760000
  22.1710000  -6.8540000  -3.2350000  26.1960000  -5.1080000  -4.5660000
  25.4130000  -4.7020000  -4.9350000  25.9080000  -5.9790000  -4.2930000
  26.0590000  -5.1680000  -4.5780000  19.9340000  -3.0960000  -7.8230000
  20.5890000  -2.7350000  -8.4200000  19.2560000  -3.4510000  -8.3980000
  19.9310000  -3.0950000  -7.9730000  35.2460000 -21.2050000  -8.5720000
  35.3920000 -20.7990000  -7.7170000  34.3010000 -21.1360000  -8.7110000
  35.1440000 -21.1440000  -8.4800000  25.2220000  -9.1510000  -6.0870000
  25.5470000  -9.9540000  -5.6800000  24.3530000  -9.3830000  -6.4130000
  25.1520000  -9.2830000  -6.0770000  20.8380000  -8.2170000  -0.1180000
  21.6410000  -7.7070000  -0.2280000  20.3880000  -7.7990000   0.6160000
  20.8830000  -8.0980000  -0.0380000  31.3340000 -11.0690000 -10.8580000
  31.8320000 -11.2760000 -11.6490000  31.5180000 -10.1440000 -10.6940000
  31.4210000 -10.9770000 -10.9380000  25.9590000 -12.3230000 -17.1170000
  25.4780000 -13.1400000 -17.2480000  26.3930000 -12.1640000 -17.9550000
  25.9530000 -12.4070000 -17.2410000  19.9230000  -7.2860000 -16.6590000
  20.6900000  -7.6090000 -16.1840000  19.1810000  -7.5250000 -16.1040000
  19.9260000  -7.3580000 -16.5270000  19.2610000 -13.5300000  -7.9630000
  20.0590000 -13.8800000  -8.3580000  19.2410000 -13.9100000  -7.0850000
  19.3600000 -13.6240000  -7.9010000  28.6550000 -10.4730000 -10.2350000
  28.2480000  -9.7130000 -10.6510000  29.5170000 -10.5380000 -10.6450000
  28.7130000 -10.3840000 -10.3410000  33.1920000  -9.2340000 -12.7530000
  33.8660000  -8.8220000 -12.2130000  32.3820000  -8.7880000 -12.5070000
  33.1750000  -9.1240000 -12.6530000  21.3460000  -8.7430000  -9.2500000
  22.3030000  -8.7590000  -9.2690000  21.1010000  -9.5570000  -8.8100000
  21.4370000  -8.8490000  -9.1960000  31.6490000 -14.7330000  -6.7110000
  31.1950000 -14.2910000  -7.4290000  31.1070000 -14.5580000  -5.9420000
  31.5220000 -14.6540000  -6.7050000  30.1880000 -13.2570000  -8.9010000
  30.8140000 -12.8070000  -9.4680000  30.0460000 -14.1040000  -9.3250000
  30.2500000 -13.3080000  -9.0280000  28.7230000  -5.3800000  -5.4020000
  29.1160000  -4.5590000  -5.1060000  27.8100000  -5.3250000  -5.1200000
  28.6570000  -5.2680000  -5.3280000  30.2120000 -16.5120000 -16.1450000
  29.4530000 -16.2640000 -16.6730000  30.7670000 -15.7320000 -16.1440000
  30.1860000 -16.3800000 -16.2120000  22.7470000 -13.2190000 -14.4280000
  22.6570000 -13.4900000 -15.3410000  21.8490000 -13.0620000 -14.1350000
  22.6200000 -13.2330000 -14.5070000  32.3340000 -17.3280000 -11.6320000
  31.6720000 -16.9220000 -12.1920000  33.0290000 -17.5910000 -12.2350000
  32.3380000 -17.3090000 -11.7810000  33.9470000 -12.0960000  -6.2530000
  33.6820000 -12.7480000  -5.6030000  34.1660000 -12.6090000  -7.0310000
  33.9410000 -12.2450000  -6.2690000  24.6930000 -10.3030000 -12.0280000
  24.8810000 -11.0550000 -12.5900000  25.5490000  -9.9120000 -11.8580000
  24.8260000 -10.3490000 -12.0780000  26.3490000 -15.4430000  -2.7880000
  27.2710000 -15.3670000  -2.5440000  25.8970000 -14.8260000  -2.2130000
  26.4090000 -15.3550000  -2.6840000  23.3400000 -18.4330000  -9.8690000
  23.5110000 -17.5120000  -9.6700000  23.9060000 -18.9170000  -9.2680000
  23.4340000 -18.3770000  -9.7670000  27.1430000  -5.0960000 -17.7450000
  27.9870000  -5.1340000 -17.2940000  27.3660000  -4.8910000 -18.6530000
  27.2800000  -5.0750000 -17.8030000  24.1940000  -9.3060000  -9.4760000
  24.4510000  -9.7240000 -10.2980000  24.2780000  -9.9980000  -8.8200000
  24.2380000  -9.4480000  -9.4970000  31.5060000  -4.8510000  -9.0170000
  31.6040000  -4.6040000  -9.9370000  30.6520000  -4.5010000  -8.7650000
  31.4090000  -4.7750000  -9.1020000  28.8960000  -0.4370000 -11.6780000
  28.7110000  -1.2640000 -12.1240000  28.5840000   0.2360000 -12.2830000
  28.8320000  -0.4570000 -11.8130000  35.0000000 -18.5670000  -0.0530000
  34.4590000 -19.0820000   0.5450000  34.5360000 -17.7340000  -0.1400000
  34.8720000 -18.5260000   0.0130000  30.4840000  -1.2020000 -18.5880000
  30.6420000  -0.3630000 -19.0210000  30.7460000  -1.0550000 -17.6790000
  30.5380000  -1.0760000 -18.5270000  32.5940000  -2.4250000  -8.4780000
  32.0500000  -1.8250000  -8.9890000  32.2030000  -3.2860000  -8.6240000
  32.4750000  -2.4580000  -8.5620000  26.6860000  -0.0570000  -9.5050000
  26.6520000  -0.7440000  -8.8400000  27.1620000  -0.4520000 -10.2350000
  26.7420000  -0.1950000  -9.5130000  28.5650000  -9.3290000 -16.8170000
  29.2950000  -8.7090000 -16.8280000  27.7830000  -8.7780000 -16.8480000
  28.5580000  -9.1790000 -16.8230000  28.1970000 -11.9480000  -7.7010000
  27.7480000 -12.7020000  -7.3190000  28.9190000 -12.3280000  -8.2010000
  28.2320000 -12.0930000  -7.7160000  29.7320000  -7.8240000  -5.9890000
  29.4560000  -7.0000000  -5.5870000  30.6830000  -7.8370000  -5.8800000
  29.8190000  -7.7200000  -5.9240000  25.2200000 -15.2110000 -13.7180000
  25.0720000 -14.2680000 -13.7960000  24.4280000 -15.5430000 -13.2940000
  25.1000000 -15.1330000 -13.6740000  29.0880000  -0.6010000  -7.7400000
  29.8780000  -0.0630000  -7.7940000  28.4880000  -0.2090000  -8.3740000
  29.1120000  -0.4820000  -7.8280000  28.8710000 -14.8670000  -1.2990000
  28.4050000 -14.2690000  -0.7150000  29.4660000 -14.3030000  -1.7940000
  28.8870000 -14.7190000  -1.2880000  24.4760000 -14.7220000 -17.1230000
  23.5590000 -14.9370000 -16.9570000  24.9510000 -15.1100000 -16.3880000
  24.4190000 -14.7990000 -17.0080000  21.1180000  -9.9760000  -3.8520000
  20.4390000  -9.3370000  -3.6320000  20.7090000 -10.8250000  -3.6890000
  20.9780000 -10.0030000  -3.8030000  32.0780000  -1.9710000 -12.8880000
  31.7100000  -1.3900000 -12.2230000  32.9690000  -1.6480000 -13.0220000
  32.1450000  -1.8550000 -12.8200000  19.2660000 -17.0670000  -5.2700000
  20.1280000 -17.1060000  -4.8560000  19.4520000 -16.9170000  -6.1970000
  19.4000000 -17.0530000  -5.3360000  30.1830000  -9.5340000  -7.9030000
  29.9150000  -8.8910000  -7.2460000  29.3840000  -9.7160000  -8.3990000
  30.0460000  -9.4750000  -7.8830000  18.7250000 -11.8960000  -1.2830000
  18.1250000 -11.1630000  -1.1420000  19.2720000 -11.9130000  -0.4970000
  18.7180000 -11.8040000  -1.1640000  20.0810000 -12.9950000 -13.2400000
  20.4810000 -12.4100000 -12.5960000  19.6170000 -12.4100000 -13.8390000
  20.0730000 -12.8450000 -13.2340000  30.1600000 -11.2000000  -5.3410000
  29.9970000 -10.8910000  -6.2320000  29.2990000 -11.4640000  -5.0180000
  30.0290000 -11.1940000  -5.4130000  30.3820000 -16.9790000  -1.2030000
  30.3790000 -17.2690000  -2.1150000  29.7100000 -16.2980000  -1.1660000
  30.2950000 -16.9290000  -1.3150000  22.0410000 -18.3160000 -17.1950000
  22.0420000 -17.5740000 -16.5910000  22.5450000 -18.0120000 -17.9490000
  22.1060000 -18.1820000 -17.2140000  22.9570000  -6.2800000 -16.9110000
  23.0430000  -6.3310000 -17.8630000  22.4040000  -5.5120000 -16.7620000
  22.8970000  -6.1880000 -17.0140000  30.0920000  -7.5370000  -2.8050000
  29.2740000  -7.6930000  -3.2760000  30.1400000  -6.5850000  -2.7160000
  29.9940000  -7.4350000  -2.8540000  34.4420000 -12.8410000  -1.5740000
  35.1550000 -13.4730000  -1.4790000  34.8820000 -12.0040000  -1.7200000
  34.5890000 -12.8150000  -1.5810000  20.4710000 -11.0590000  -8.0520000
  19.6920000 -10.5530000  -7.8210000  20.2090000 -11.9720000  -7.9290000
  20.3380000 -11.1110000  -8.0070000  23.5670000  -6.9020000 -10.9460000
  23.4800000  -6.1220000 -10.3970000  23.6390000  -7.6260000 -10.3230000
  23.5650000  -6.8950000 -10.7960000  19.1980000 -15.8180000 -15.7410000
  19.1410000 -16.0720000 -16.6620000  18.6500000 -15.0360000 -15.6730000
  19.1200000 -15.7500000 -15.8500000  23.6690000 -11.7610000  -3.7620000
  23.5780000 -11.8810000  -4.7070000  22.9450000 -11.1830000  -3.5240000
  23.5650000 -11.7020000  -3.8530000  24.7510000 -18.2450000 -12.3100000
  24.3460000 -18.5760000 -11.5080000  24.8580000 -19.0190000 -12.8620000
  24.7130000 -18.3860000 -12.2780000  35.8360000  -2.7860000 -12.5700000
  35.9060000  -3.4150000 -11.8530000  35.9020000  -3.3180000 -13.3630000
  35.8530000  -2.9340000 -12.5800000  25.2940000 -12.1990000 -14.4240000
  25.6670000 -12.2640000 -15.3030000  24.3890000 -12.4950000 -14.5250000
  25.2260000 -12.2460000 -14.5490000  24.9930000  -5.0420000 -15.9900000
  24.2610000  -5.5310000 -16.3660000  25.6530000  -5.0290000 -16.6820000
  24.9830000  -5.1030000 -16.1260000  27.4390000 -15.3020000 -12.0390000
  26.5870000 -15.4400000 -12.4510000  27.4890000 -14.3550000 -11.9030000
  27.3370000 -15.1980000 -12.0740000  19.9390000  -1.6970000  -5.4190000
  19.6460000  -1.9700000  -6.2890000  19.6310000  -0.7950000  -5.3350000
  19.8620000  -1.6170000  -5.5200000  22.3110000 -14.6340000  -2.8480000
  23.1020000 -14.6010000  -3.3850000  21.9510000 -13.7480000  -2.8960000
  22.3660000 -14.5170000  -2.9230000  28.4840000 -11.6310000 -18.8000000
  28.4650000 -10.9810000 -18.0980000  28.8390000 -12.4190000 -18.3880000
  28.5270000 -11.6480000 -18.6580000  33.4670000 -16.3810000  -1.3790000
  33.5280000 -16.7280000  -2.2690000  32.5260000 -16.3330000  -1.2050000
  33.3540000 -16.4190000  -1.4710000  23.8540000  -4.3330000  -6.0210000
  23.2840000  -3.6460000  -5.6740000  23.4020000  -5.1490000  -5.8070000
  23.7230000  -4.3490000  -5.9490000  30.4460000  -2.7520000 -14.9300000
  29.7610000  -2.8240000 -14.2650000  31.2440000  -2.5740000 -14.4330000
  30.4600000  -2.7390000 -14.7810000  28.1570000 -17.1280000 -13.9480000
  27.9320000 -16.3430000 -13.4490000  29.0560000 -16.9760000 -14.2400000
  28.2440000 -17.0080000 -13.9210000  33.5840000 -17.4080000  -9.0780000
  34.4550000 -17.8010000  -9.0210000  33.4850000 -17.1770000 -10.0010000
  33.6830000 -17.4290000  -9.1890000  30.4920000 -17.1410000  -3.9440000
  30.2320000 -17.9170000  -4.4410000  31.4480000 -17.1360000  -3.9920000
  30.5810000 -17.2400000  -4.0140000  33.6090000 -13.5430000 -13.8300000
  33.3880000 -13.7930000 -12.9320000  34.4250000 -14.0090000 -14.0130000
  33.6850000 -13.6350000 -13.7380000  31.4550000  -3.7800000 -18.6830000
  31.0550000  -2.9120000 -18.6330000  30.9790000  -4.3010000 -18.0360000
  31.3430000  -3.7350000 -18.5940000  27.4120000 -14.9930000  -8.6630000
  26.5610000 -15.4240000  -8.7500000  27.5110000 -14.8460000  -7.7220000
  27.3150000 -15.0290000  -8.5540000  26.0430000 -17.9720000  -1.5120000
  25.4900000 -17.6610000  -0.7960000  26.1040000 -17.2260000  -2.1090000
  25.9800000 -17.8370000  -1.4970000  24.8340000  -5.4590000 -12.8270000
  24.1980000  -5.9140000 -12.2760000  24.3460000  -4.7250000 -13.2000000
  24.6910000  -5.4230000 -12.8040000  30.7120000  -3.7880000  -4.6220000
  30.5090000  -4.0980000  -3.7400000  31.2260000  -4.4960000  -5.0120000
  30.7520000  -3.9190000  -4.5590000  33.3570000  -6.1860000  -1.9750000
  32.7170000  -6.7190000  -1.5030000  33.3190000  -6.5090000  -2.8760000
  33.2700000  -6.2960000  -2.0300000  27.1240000  -3.8180000  -1.8400000
  26.7370000  -4.1830000  -2.6360000  26.4760000  -3.1890000  -1.5250000
  26.9910000  -3.7850000  -1.9010000  21.3870000 -14.8380000  -9.0490000
  21.2930000 -15.3050000  -9.8790000  22.2100000 -15.1610000  -8.6840000
  21.4800000 -14.9390000  -9.1080000  35.0920000  -6.3270000 -13.7260000
  35.1140000  -6.2110000 -12.7760000  35.2650000  -5.4540000 -14.0770000
  35.1170000  -6.2000000 -13.6490000  34.4670000  -0.3870000 -13.4190000
  34.2030000  -0.4220000 -14.3380000  35.0890000  -1.1080000 -13.3200000
  34.5130000  -0.4840000 -13.5240000  31.6410000  -0.3910000 -15.9080000
  31.1250000  -1.0760000 -15.4820000  31.1580000   0.4160000 -15.7340000
  31.5130000  -0.3760000 -15.8310000  23.5500000 -15.5800000  -7.7930000
  24.0020000 -16.1590000  -7.1790000  24.1130000 -15.5650000  -8.5660000
  23.6800000 -15.6520000  -7.8130000  20.1320000 -12.4800000  -3.5240000
  19.5660000 -12.1190000  -4.2060000  19.6360000 -12.3640000  -2.7140000
  19.9960000 -12.4190000  -3.5080000  31.3780000   1.1520000  -7.6070000
  32.1530000   0.9960000  -8.1460000  31.3470000   2.1030000  -7.5010000
  31.4730000   1.2540000  -7.6620000  27.9480000  -2.4360000 -13.3780000
  27.7100000  -3.2490000 -12.9340000  27.1430000  -2.1580000 -13.8150000
  27.8150000  -2.5040000 -13.3770000  33.1410000  -3.0160000  -2.0710000
  33.4110000  -3.9200000  -1.9110000  32.1890000  -3.0290000  -1.9700000
  33.0530000  -3.1330000  -2.0370000  33.4510000  -7.3100000  -4.3740000
  32.8410000  -8.0460000  -4.3180000  33.0190000  -6.6860000  -4.9570000
  33.3180000  -7.3250000  -4.4410000  22.5490000  -6.7220000  -5.9490000
  22.0880000  -6.3780000  -6.7140000  22.6300000  -7.6600000  -6.1210000
  22.5000000  -6.7980000  -6.0690000  20.7450000  -9.0810000 -13.7640000
  21.7010000  -9.0490000 -13.7370000  20.4740000  -8.1640000 -13.7260000
  20.8330000  -8.9600000 -13.7560000  25.5850000 -13.6220000  -0.8210000
  24.8200000 -14.0190000  -0.4030000  25.3310000 -12.7110000  -0.9690000
  25.4540000 -13.5560000  -0.7860000  22.1040000 -15.7910000 -15.7930000
  22.4120000 -15.7260000 -14.8890000  21.1860000 -16.0490000 -15.7140000
  22.0260000 -15.8160000 -15.6670000  31.4130000 -11.5300000 -13.4090000
  32.0330000 -11.0860000 -13.9880000  30.6030000 -11.0260000 -13.4940000
  31.3890000 -11.4080000 -13.4940000  18.0330000  -5.4780000 -17.4480000
  18.6610000  -6.0010000 -16.9490000  18.5270000  -5.1720000 -18.2090000
  18.1770000  -5.5060000 -17.4810000  23.7050000  -3.3940000 -14.1770000
  23.0050000  -2.9960000 -14.6940000  24.1370000  -3.9970000 -14.7830000
  23.6710000  -3.4200000 -14.3210000  32.3060000  -5.4510000  -6.3550000
  32.1330000  -5.5280000  -7.2930000  33.0890000  -4.9040000  -6.3000000
  32.3840000  -5.3910000  -6.4680000  27.1240000  -9.0670000 -12.0360000
  27.6380000  -9.6670000 -12.5760000  26.8500000  -8.3770000 -12.6400000
  27.1540000  -9.0560000 -12.1820000  34.1520000  -0.5000000  -2.7450000
  34.5610000  -0.3280000  -1.8970000  33.8830000  -1.4170000  -2.7000000
  34.1700000  -0.5950000  -2.6310000  33.1660000 -15.8380000  -4.4770000
  32.8790000 -15.0120000  -4.0860000  32.9430000 -15.7540000  -5.4040000
  33.1000000 -15.7210000  -4.5450000  19.6110000  -1.7120000 -17.9900000
  20.1680000  -2.4710000 -17.8180000  20.1790000  -0.9580000 -17.8340000
  19.7550000  -1.7130000 -17.9480000  31.5600000  -7.7260000  -0.6830000
  30.7490000  -7.6880000  -1.1900000  31.9240000  -8.5890000  -0.8780000
  31.5030000  -7.8310000  -0.7730000  24.9000000 -15.6830000 -10.1250000
  24.7220000 -15.0930000 -10.8570000  25.3850000 -16.4100000 -10.5150000
  24.9390000 -15.7000000 -10.2680000  18.5050000  -9.0930000 -11.5480000
  19.1020000  -8.8370000 -12.2520000  18.8080000  -8.5980000 -10.7860000
  18.6200000  -8.9970000 -11.5410000  21.1860000  -5.5860000  -7.7430000
  21.4450000  -4.8930000  -8.3510000  20.3140000  -5.3270000  -7.4440000
  21.1080000  -5.4640000  -7.7830000  34.8740000  -7.9960000 -10.7620000
  35.7270000  -8.3370000 -11.0320000  34.8960000  -8.0250000  -9.8060000
  34.9860000  -8.0440000 -10.6750000  27.8040000 -11.0850000  -2.8570000
  27.0500000 -11.4150000  -3.3460000  27.6030000 -11.2830000  -1.9430000
  27.6820000 -11.1530000  -2.8030000  31.3540000 -11.7620000  -0.7880000
  30.5700000 -11.8010000  -0.2400000  31.9910000 -12.3130000  -0.3340000
  31.3350000 -11.8370000  -0.6600000  33.0200000  -7.3250000 -15.5470000
  33.4160000  -6.9840000 -14.7450000  33.5110000  -6.9060000 -16.2540000
  33.1330000  -7.2280000 -15.5350000  32.7490000 -13.2390000  -3.5850000
  33.4420000 -13.0450000  -2.9530000  32.1130000 -12.5330000  -3.4670000
  32.7560000 -13.1240000  -3.4890000  33.2140000  -0.9690000  -6.1100000
  32.7410000  -0.1360000  -6.1170000  32.6830000  -1.5500000  -6.6540000
  33.0850000  -0.9370000  -6.1800000  25.3260000 -16.2980000 -24.1260000
  25.5540000 -16.3260000 -23.1970000  24.6970000 -17.0100000 -24.2390000
  25.2750000 -16.3930000 -24.0210000  22.7250000  -2.1120000 -23.8660000
  21.7710000  -2.1800000 -23.8980000  22.9140000  -1.8050000 -22.9800000
  22.6260000  -2.0810000 -23.7570000  27.4900000  -4.6680000 -30.7030000
  27.3160000  -4.5070000 -29.7750000  26.7250000  -5.1540000 -31.0090000
  27.3700000  -4.7100000 -30.6230000  23.2420000 -18.0120000 -24.6200000
  22.6820000 -17.5640000 -23.9860000  23.0960000 -18.9430000 -24.4530000
  23.1520000 -18.0740000 -24.5180000  24.0610000  -9.7710000 -35.3720000
  23.9070000  -9.3140000 -34.5450000  24.7730000 -10.3810000 -35.1800000
  24.1320000  -9.7910000 -35.2420000  27.4560000 -14.5620000 -24.7670000
  26.8530000 -15.2030000 -24.3920000  28.2450000 -14.6310000 -24.2290000
  27.4800000 -14.6520000 -24.6500000  27.9940000 -18.1250000 -18.4890000
  28.8860000 -18.3540000 -18.7530000  27.4720000 -18.2460000 -19.2820000
  28.0420000 -18.1690000 -18.6240000  34.2220000  -3.6120000 -37.1860000
  33.3600000  -3.2840000 -37.4420000  34.1260000  -4.5640000 -37.1870000
  34.0990000  -3.6920000 -37.2190000  20.9480000  -3.5150000 -30.4090000
  20.9860000  -2.6220000 -30.7530000  20.1490000  -3.5360000 -29.8830000
  20.8510000  -3.4030000 -30.3860000  25.6590000  -1.7250000 -33.7200000
  24.8600000  -2.2520000 -33.7100000  26.0030000  -1.8280000 -34.6070000
  25.6010000  -1.8060000 -33.8320000  29.8790000 -14.7360000 -23.4990000
  30.0570000 -15.6180000 -23.1730000  30.1980000 -14.1560000 -22.8070000
  29.9430000 -14.7750000 -23.3680000  29.5670000  -6.7400000 -31.2530000
  29.1410000  -7.3470000 -31.8570000  28.9040000  -6.0730000 -31.0750000
  29.4280000  -6.7320000 -31.3070000  27.5340000 -15.6890000 -36.0110000
  27.2680000 -16.1520000 -35.2160000  27.5500000 -16.3660000 -36.6870000
  27.5020000 -15.8350000 -35.9950000  27.7690000  -8.5010000 -22.7270000
  27.6410000  -9.3660000 -22.3380000  28.2120000  -8.6760000 -23.5580000
  27.8090000  -8.6340000 -22.7840000  30.6450000  -7.5490000 -35.7080000
  31.4150000  -7.5280000 -35.1410000  30.9640000  -7.9160000 -36.5320000
  30.7840000  -7.5930000 -35.7410000  18.8930000 -14.1710000 -24.1700000
  19.1700000 -13.6020000 -23.4520000  18.2910000 -14.7940000 -23.7630000
  18.8520000 -14.1780000 -24.0260000  34.3630000  -6.3120000 -36.9610000
  34.4050000  -6.4460000 -37.9080000  35.2490000  -6.0450000 -36.7180000
  34.4820000  -6.2950000 -37.0510000  19.7660000  -7.8340000 -21.5770000
  18.8450000  -8.0540000 -21.7170000  19.8460000  -7.7270000 -20.6300000
  19.6580000  -7.8490000 -21.4740000  34.7060000 -15.8820000 -34.8730000
  34.8380000 -16.0260000 -33.9360000  33.8380000 -15.4830000 -34.9330000
  34.6120000 -15.8500000 -34.7600000  31.3560000  -4.1450000 -30.3720000
  31.5320000  -3.2950000 -30.7750000  30.5970000  -4.4820000 -30.8460000
  31.2820000  -4.0790000 -30.4840000  31.1460000  -0.8200000 -29.1200000
  31.7320000  -0.0830000 -29.2950000  30.3640000  -0.6340000 -29.6390000
  31.1210000  -0.7020000 -29.2090000  23.4680000 -13.5650000 -30.6000000
  23.0610000 -13.5660000 -31.4670000  22.9820000 -12.9020000 -30.1090000
  23.3540000 -13.4800000 -30.6480000  21.5870000 -17.1690000 -22.5820000
  21.7940000 -16.2710000 -22.3250000  21.2310000 -17.5700000 -21.7890000
  21.5680000 -17.1060000 -22.4480000  22.8950000 -16.3780000 -31.8820000
  22.1370000 -16.3910000 -31.2970000  23.4270000 -17.1220000 -31.6010000
  22.8660000 -16.4750000 -31.7710000  29.9350000 -12.6800000 -21.5830000
  30.5210000 -12.3670000 -20.8940000  29.2090000 -12.0550000 -21.5830000
  29.9170000 -12.5600000 -21.4950000  27.5550000 -12.1790000 -32.0510000
  26.7300000 -12.1970000 -32.5360000  27.3040000 -12.3650000 -31.1460000
  27.4170000 -12.2050000 -31.9970000  24.6690000  -2.5140000 -27.4340000
  24.4080000  -2.8890000 -26.5930000  25.4000000  -3.0590000 -27.7230000
  24.7290000  -2.6320000 -27.3640000  22.9070000  -4.3210000 -28.7190000
  22.1830000  -4.0180000 -29.2670000  23.5010000  -3.5710000 -28.6710000
  22.8910000  -4.1860000 -28.7830000  19.4560000 -14.1670000 -18.5290000
  19.2580000 -14.0860000 -19.4610000  18.6620000 -13.8640000 -18.0880000
  19.3290000 -14.1180000 -18.5920000  22.3800000 -10.5570000 -37.3810000
  21.7770000  -9.8200000 -37.4770000  23.0090000 -10.2670000 -36.7200000
  22.3830000 -10.4260000 -37.3090000  26.8070000  -2.0950000 -36.0880000
  27.2660000  -2.9170000 -35.9160000  27.5050000  -1.4550000 -36.2270000
  26.9550000  -2.1180000 -36.0840000  25.5300000 -11.6040000 -27.1060000
  26.4110000 -11.3120000 -26.8740000  25.6160000 -11.9380000 -27.9990000
  25.6540000 -11.6090000 -27.1910000  19.4240000  -5.1410000 -19.7720000
  18.6620000  -4.5730000 -19.8890000  19.6290000  -5.4510000 -20.6540000
  19.3520000  -5.1080000 -19.9000000  21.4950000  -3.8460000 -18.4350000
  21.9780000  -3.2850000 -19.0420000  21.0520000  -4.4820000 -18.9960000
  21.5000000  -3.8550000 -18.5840000  25.1210000  -2.1100000 -19.6370000
  25.6950000  -2.1970000 -18.8760000  25.0790000  -1.1680000 -19.7990000
  25.1890000  -2.0010000 -19.5610000  29.8270000 -15.7850000 -28.9220000
  28.8750000 -15.8480000 -28.8510000  30.1550000 -16.5130000 -28.3940000
  29.7470000 -15.8860000 -28.8450000  34.9560000  -7.7770000 -26.8000000
  35.3960000  -7.2700000 -26.1170000  34.2840000  -8.2740000 -26.3340000
  34.9270000  -7.7760000 -26.6530000  25.4760000  -8.2560000 -19.7360000
  25.3190000  -9.2000000 -19.7720000  25.3870000  -7.9640000 -20.6430000
  25.4440000  -8.3400000 -19.8570000  29.6830000  -4.9480000 -35.6340000
  29.9870000  -5.8410000 -35.4780000  30.2100000  -4.4080000 -35.0450000
  29.7890000  -4.9930000 -35.5390000  32.3060000 -14.4600000 -35.0580000
  32.4100000 -14.1160000 -34.1710000  32.1760000 -13.6840000 -35.6030000
  32.3030000 -14.3170000 -35.0140000  34.9480000 -13.6120000 -27.7310000
  35.8600000 -13.6010000 -27.4380000  34.9480000 -14.1970000 -28.4890000
  35.0650000 -13.6860000 -27.7900000  32.7930000  -9.2750000 -25.8800000
  31.9180000  -9.5320000 -26.1700000  33.1450000 -10.0580000 -25.4560000
  32.7260000  -9.4080000 -25.8630000  22.5010000  -2.3590000 -20.7220000
  22.2500000  -1.4550000 -20.5310000  23.4070000  -2.4240000 -20.4190000
  22.5860000  -2.2510000 -20.6590000  24.5350000 -17.2860000 -37.0710000
  24.8770000 -17.2770000 -36.1770000  24.0500000 -16.4640000 -37.1490000
  24.5170000 -17.1790000 -36.9670000  19.7040000 -17.3700000 -27.1670000
  20.5380000 -16.9160000 -27.2910000  19.1160000 -16.9710000 -27.8070000
  19.7360000 -17.2610000 -27.2640000  20.8030000 -18.2370000 -20.1550000
  19.9700000 -18.6640000 -19.9540000  20.7700000 -17.4100000 -19.6750000
  20.6920000 -18.1860000 -20.0680000  27.1380000 -12.7750000 -29.4170000
  27.2240000 -13.5590000 -28.8740000  27.5780000 -12.0880000 -28.9170000
  27.2050000 -12.7870000 -29.2840000  34.2340000 -18.6360000 -35.2030000
  34.3620000 -17.7210000 -35.4550000  33.2850000 -18.7310000 -35.1180000
  34.1290000 -18.5310000 -35.2240000  20.2130000  -0.5530000 -32.8980000
  19.4320000  -0.6840000 -33.4360000  20.1830000   0.3720000 -32.6540000
  20.1090000  -0.4510000 -32.9360000  30.2640000  -4.7510000 -20.9470000
  30.8460000  -4.9150000 -20.2060000  29.6700000  -4.0650000 -20.6390000
  30.2620000  -4.6840000 -20.8130000  26.5660000  -4.2870000 -28.2080000
  26.0860000  -5.0950000 -28.0310000  27.2950000  -4.3010000 -27.5890000
  26.5980000  -4.3920000 -28.1060000  29.3710000 -13.4340000 -35.9410000
  28.7450000 -14.1580000 -35.9170000  29.5890000 -13.2750000 -35.0230000
  29.3190000 -13.5060000 -35.8210000  26.1090000 -11.7860000 -23.8210000
  25.2640000 -12.1060000 -23.5040000  26.5820000 -12.5770000 -24.0800000
  26.0610000 -11.9280000 -23.8130000  23.0360000  -6.6000000 -19.4870000
  23.8470000  -7.0880000 -19.6290000  22.7670000  -6.3230000 -20.3630000
  23.1050000  -6.6270000 -19.6180000  21.9440000  -2.0280000 -34.3640000
  21.3620000  -1.5300000 -33.7910000  22.1730000  -1.4170000 -35.0640000
  21.8990000  -1.8860000 -34.3800000  25.2980000  -7.5600000 -22.4590000
  26.1780000  -7.9330000 -22.5110000  24.7600000  -8.1410000 -22.9960000
  25.3420000  -7.6820000 -22.5340000  34.2870000  -3.8490000 -24.1020000
  33.9360000  -3.9520000 -23.2170000  34.4350000  -2.9070000 -24.1920000
  34.2610000  -3.7420000 -24.0000000  33.6680000 -14.7520000 -30.3520000
  34.3640000 -15.1380000 -30.8850000  33.0580000 -15.4740000 -30.1970000
  33.6780000 -14.8940000 -30.4010000  35.6560000 -10.0420000 -19.6160000
  34.8330000  -9.7020000 -19.9650000  35.5120000 -10.0980000 -18.6710000
  35.5330000 -10.0060000 -19.5400000  29.5690000 -13.3160000 -33.2770000
  28.7460000 -13.0330000 -32.8810000  30.2470000 -12.9300000 -32.7220000
  29.5510000 -13.2310000 -33.1550000  22.5810000  -9.7250000 -25.1840000
  22.2040000  -9.8520000 -24.3140000  22.0180000 -10.2360000 -25.7660000
  22.4610000  -9.8060000 -25.1470000  31.5880000  -8.2150000 -29.7290000
  32.1330000  -7.7140000 -29.1220000  30.8940000  -7.6080000 -29.9860000
  31.5690000  -8.0740000 -29.6840000  19.5710000  -6.6490000 -28.9080000
  19.9650000  -6.7190000 -29.7780000  20.1830000  -7.1040000 -28.3310000
  19.7000000  -6.7160000 -28.9460000  34.2920000 -10.9690000 -33.5360000
  34.2490000 -10.3500000 -32.8060000  33.9260000 -11.7800000 -33.1840000
  34.2400000 -10.9930000 -33.3970000  29.0420000 -10.1050000 -33.0570000
  28.3700000 -10.7860000 -33.0270000  29.1210000  -9.8880000 -33.9860000
  28.9660000 -10.1640000 -33.1720000  22.7290000 -15.2520000 -19.0940000
  22.5760000 -14.9720000 -19.9960000  22.4920000 -14.4920000 -18.5630000
  22.6790000 -15.1190000 -19.1410000  30.2280000  -1.1260000 -23.9390000
  29.6790000  -1.1950000 -24.7190000  30.5920000  -2.0030000 -23.8230000
  30.2050000  -1.2470000 -24.0240000  24.6620000 -11.1310000 -19.9880000
  24.5470000 -11.4150000 -20.8950000  23.7710000 -11.0280000 -19.6550000
  24.5330000 -11.1540000 -20.0620000  23.7070000 -12.8040000 -25.1420000
  23.1170000 -13.5430000 -25.2940000  24.3190000 -12.8320000 -25.8770000
  23.7100000 -12.9020000 -25.2560000  25.0920000  -6.6120000 -27.1100000
  25.0520000  -7.5670000 -27.1470000  24.6370000  -6.3840000 -26.3000000
  25.0290000  -6.7050000 -27.0110000  33.0570000  -9.9590000 -20.4280000
  32.3660000 -10.5990000 -20.2600000  32.8490000  -9.6030000 -21.2910000
  32.9420000  -9.9960000 -20.5170000  18.6750000 -10.8570000 -33.2910000
  19.3400000 -10.2570000 -32.9530000  17.8430000 -10.4230000 -33.1020000
  18.6540000 -10.7250000 -33.2230000  21.0080000  -6.4120000 -31.0890000
  21.6870000  -6.6920000 -30.4750000  21.1060000  -5.4620000 -31.1380000
  21.1070000  -6.3260000 -31.0160000  26.4220000  -7.6760000 -36.0020000
  26.0390000  -7.9850000 -36.8230000  26.6610000  -6.7650000 -36.1770000
  26.4040000  -7.5990000 -36.1290000  20.6780000 -16.2210000 -30.3240000
  20.4400000 -17.0400000 -30.7580000  19.9170000 -15.6530000 -30.4510000
  20.5500000 -16.2530000 -30.3960000  25.2490000 -17.4060000 -34.3200000
  25.4940000 -18.2810000 -34.0190000  25.0340000 -16.9290000 -33.5190000
  25.2530000 -17.4570000 -34.1790000  30.4810000 -15.6570000 -31.7820000
  30.1870000 -14.9420000 -32.3460000  30.2100000 -15.3960000 -30.9020000
  30.4090000 -15.5320000 -31.7420000  28.9350000  -4.0010000 -26.7000000
  28.8710000  -4.5210000 -25.8980000  29.4800000  -3.2520000 -26.4570000
  28.9960000  -3.9720000 -26.5660000  34.4340000  -5.1050000 -30.0810000
  33.5190000  -5.0950000 -30.3640000  34.5560000  -5.9730000 -29.6960000
  34.3320000  -5.2150000 -30.0680000  22.0870000 -13.1410000 -36.2860000
  21.1620000 -13.3840000 -36.2480000  22.0830000 -12.2210000 -36.5510000
  21.9690000 -13.0540000 -36.3150000  24.0560000  -8.7880000 -32.9970000
  24.8790000  -8.3020000 -33.0350000  24.1070000  -9.2830000 -32.1800000
  24.1680000  -8.7890000 -32.8980000  20.7470000  -0.9130000 -28.9210000
  20.2050000  -0.4900000 -28.2540000  21.6460000  -0.7160000 -28.6590000
  20.7920000  -0.8330000 -28.8020000  26.3510000  -7.1510000 -32.9950000
  25.8280000  -6.4480000 -32.6090000  26.3630000  -6.9550000 -33.9310000
  26.2860000  -7.0360000 -33.0650000  33.3940000 -12.2840000 -36.8310000
  33.8720000 -12.6370000 -37.5800000  33.8960000 -11.5120000 -36.5680000
  33.5190000 -12.2300000 -36.8930000  22.2880000  -6.8480000 -22.0010000
  22.2500000  -6.5310000 -22.9030000  21.4160000  -7.2070000 -21.8360000
  22.1710000  -6.8540000 -22.0950000  26.1960000  -5.1080000 -23.4260000
  25.4130000  -4.7020000 -23.7950000  25.9080000  -5.9790000 -23.1530000
  26.0590000  -5.1680000 -23.4380000  19.9340000  -3.0960000 -26.6830000
  20.5890000  -2.7350000 -27.2800000  19.2560000  -3.4510000 -27.2580000
  19.9310000  -3.0950000 -26.8330000  35.2460000 -21.2050000 -27.4320000
  35.3920000 -20.7990000 -26.5770000  34.3010000 -21.1360000 -27.5710000
  35.1440000 -21.1440000 -27.3400000  25.2220000  -9.1510000 -24.9470000
  25.5470000  -9.9540000 -24.5400000  24.3530000  -9.3830000 -25.2730000
  25.1520000  -9.2830000 -24.9370000  20.8380000  -8.2170000 -18.9780000
  21.6410000  -7.7070000 -19.0880000  20.3880000  -7.7990000 -18.2440000
  20.8830000  -8.0980000 -18.8980000  31.3340000 -11.0690000 -29.7180000
  31.8320000 -11.2760000 -30.5090000  31.5180000 -10.1440000 -29.5540000
  31.4210000 -10.9770000 -29.7980000  25.9590000 -12.3230000 -35.9770000
  25.4780000 -13.1400000 -36.1080000  26.3930000 -12.1640000 -36.8150000
  25.9530000 -12.4070000 -36.1010000  19.9230000  -7.2860000 -35.5190000
  20.6900000  -7.6090000 -35.0440000  19.1810000  -7.5250000 -34.9640000
  19.9260000  -7.3580000 -35.3870000  19.2610000 -13.5300000 -26.8230000
  20.0590000 -13.8800000 -27.2180000  19.2410000 -13.9100000 -25.9450000
  19.3600000 -13.6240000 -26.7610000  28.6550000 -10.4730000 -29.0950000
  28.2480000  -9.7130000 -29.5110000  29.5170000 -10.5380000 -29.5050000
  28.7130000 -10.3840000 -29.2010000  33.1920000  -9.2340000 -31.6130000
  33.8660000  -8.8220000 -31.0730000  32.3820000  -8.7880000 -31.3670000
  33.1750000  -9.1240000 -31.5130000  21.3460000  -8.7430000 -28.1100000
  22.3030000  -8.7590000 -28.1290000  21.1010000  -9.5570000 -27.6700000
  21.4370000  -8.8490000 -28.0560000  31.6490000 -14.7330000 -25.5710000
  31.1950000 -14.2910000 -26.2890000  31.1070000 -14.5580000 -24.8020000
  31.5220000 -14.6540000 -25.5650000  30.1880000 -13.2570000 -27.7610000
  30.8140000 -12.8070000 -28.3280000  30.0460000 -14.1040000 -28.1850000
  30.2500000 -13.3080000 -27.8880000  28.7230000  -5.3800000 -24.2620000
  29.1160000  -4.5590000 -23.9660000  27.8100000  -5.3250000 -23.9800000
  28.6570000  -5.2680000 -24.1880000  30.2120000 -16.5120000 -35.0050000
  29.4530000 -16.2640000 -35.5330000  30.7670000 -15.7320000 -35.0040000
  30.1860000 -16.3800000 -35.0720000  22.7470000 -13.2190000 -33.2880000
  22.6570000 -13.4900000 -34.2010000  21.8490000 -13.0620000 -32.9950000
  22.6200000 -13.2330000 -33.3670000  32.3340000 -17.3280000 -30.4920000
  31.6720000 -16.9220000 -31.0520000  33.0290000 -17.5910000 -31.0950000
  32.3380000 -17.3090000 -30.6410000  33.9470000 -12.0960000 -25.1130000
  33.6820000 -12.7480000 -24.4630000  34.1660000 -12.6090000 -25.8910000
  33.9410000 -12.2450000 -25.1290000  24.6930000 -10.3030000 -30.8880000
  24.8810000 -11.0550000 -31.4500000  25.5490000  -9.9120000 -30.7180000
  24.8260000 -10.3490000 -30.9380000  26.3490000 -15.4430000 -21.6480000
  27.2710000 -15.3670000 -21.4040000  25.8970000 -14.8260000 -21.0730000
  26.4090000 -15.3550000 -21.5440000  23.3400000 -18.4330000 -28.7290000
  23.5110000 -17.5120000 -28.5300000  23.9060000 -18.9170000 -28.1280000
  23.4340000 -18.3770000 -28.6270000  27.1430000  -5.0960000 -36.6050000
  27.9870000  -5.1340000 -36.1540000  27.3660000  -4.8910000 -37.5130000
  27.2800000  -5.0750000 -36.6630000  24.1940000  -9.3060000 -28.3360000
  24.4510000  -9.7240000 -29.1580000  24.2780000  -9.9980000 -27.6800000
  24.2380000  -9.4480000 -28.3570000  31.5060000  -4.8510000 -27.8770000
  31.6040000  -4.6040000 -28.7970000  30.6520000  -4.5010000 -27.6250000
  31.4090000  -4.7750000 -27.9620000  28.8960000  -0.4370000 -30.5380000
  28.7110000  -1.2640000 -30.9840000  28.5840000   0.2360000 -31.1430000
  28.8320000  -0.4570000 -30.6730000  35.0000000 -18.5670000 -18.9130000
  34.4590000 -19.0820000 -18.3150000  34.5360000 -17.7340000 -19.0000000
  34.8720000 -18.5260000 -18.8470000  30.4840000  -1.2020000 -37.4480000
  30.6420000  -0.3630000 -37.8810000  30.7460000  -1.0550000 -36.5390000
  30.5380000  -1.0760000 -37.3870000  32.5940000  -2.4250000 -27.3380000
  32.0500000  -1.8250000 -27.8490000  32.2030000  -3.2860000 -27.4840000
  32.4750000  -2.4580000 -27.4220000  26.6860000  -0.0570000 -28.3650000
  26.6520000  -0.7440000 -27.7000000  27.1620000  -0.4520000 -29.0950000
  26.7420000  -0.1950000 -28.3730000  28.5650000  -9.3290000 -35.6770000
  29.2950000  -8.7090000 -35.6880000  27.7830000  -8.7780000 -35.7080000
  28.5580000  -9.1790000 -35.6830000  28.1970000 -11.9480000 -26.5610000
  27.7480000 -12.7020000 -26.1790000  28.9190000 -12.3280000 -27.0610000
  28.2320000 -12.0930000 -26.5760000  29.7320000  -7.8240000 -24.8490000
  29.4560000  -7.0000000 -24.4470000  30.6830000  -7.8370000 -24.7400000
  29.8190000  -7.7200000 -24.7840000  25.2200000 -15.2110000 -32.5780000
  25.0720000 -14.2680000 -32.6560000  24.4280000 -15.5430000 -32.1540000
  25.1000000 -15.1330000 -32.5340000  29.0880000  -0.6010000 -26.6000000
  29.8780000  -0.0630000 -26.6540000  28.4880000  -0.2090000 -27.2340000
  29.1120000  -0.4820000 -26.6880000  28.8710000 -14.8670000 -20.1590000
  28.4050000 -14.2690000 -19.5750000  29.4660000 -14.3030000 -20.6540000
  28.8870000 -14.7190000 -20.1480000  24.4760000 -14.7220000 -35.9830000
  23.5590000 -14.9370000 -35.8170000  24.9510000 -15.1100000 -35.2480000
  24.4190000 -14.7990000 -35.8680000  21.1180000  -9.9760000 -22.7120000
  20.4390000  -9.3370000 -22.4920000  20.7090000 -10.8250000 -22.5490000
  20.9780000 -10.0030000 -22.6630000  32.0780000  -1.9710000 -31.7480000
  31.7100000  -1.3900000 -31.0830000  32.9690000  -1.6480000 -31.8820000
  32.1450000  -1.8550000 -31.6800000  19.2660000 -17.0670000 -24.1300000
  20.1280000 -17.1060000 -23.7160000  19.4520000 -16.9170000 -25.0570000
  19.4000000 -17.0530000 -24.1960000  30.1830000  -9.5340000 -26.7630000
  29.9150000  -8.8910000 -26.1060000  29.3840000  -9.7160000 -27.2590000
  30.0460000  -9.4750000 -26.7430000  18.7250000 -11.8960000 -20.1430000
  18.1250000 -11.1630000 -20.0020000  19.2720000 -11.9130000 -19.3570000
  18.7180000 -11.8040000 -20.0240000  20.0810000 -12.9950000 -32.1000000
  20.4810000 -12.4100000 -31.4560000  19.6170000 -12.4100000 -32.6990000
  20.0730000 -12.8450000 -32.0940000  30.1600000 -11.2000000 -24.2010000
  29.9970000 -10.8910000 -25.0920000  29.2990000 -11.4640000 -23.8780000
  30.0290000 -11.1940000 -24.2730000  30.3820000 -16.9790000 -20.0630000
  30.3790000 -17.2690000 -20.9750000  29.7100000 -16.2980000 -20.0260000
  30.2950000 -16.9290000 -20.1750000  22.0410000 -18.3160000 -36.0550000
  22.0420000 -17.5740000 -35.4510000  22.5450000 -18.0120000 -36.8090000
  22.1060000 -18.1820000 -36.0740000  22.9570000  -6.2800000 -35.7710000
  23.0430000  -6.3310000 -36.7230000  22.4040000  -5.5120000 -35.6220000
  22.8970000  -6.1880000 -35.8740000  30.0920000  -7.5370000 -21.6650000
  29.2740000  -7.6930000 -22.1360000  30.1400000  -6.5850000 -21.5760000
  29.9940000  -7.4350000 -21.7140000  34.4420000 -12.8410000 -20.4340000
  35.1550000 -13.4730000 -20.3390000  34.8820000 -12.0040000 -20.5800000
  34.5890000 -12.8150000 -20.4410000  20.4710000 -11.0590000 -26.9120000
  19.6920000 -10.5530000 -26.6810000  20.2090000 -11.9720000 -26.7890000
  20.3380000 -11.1110000 -26.8670000  23.5670000  -6.9020000 -29.8060000
  23.4800000  -6.1220000 -29.2570000  23.6390000  -7.6260000 -29.1830000
  23.5650000  -6.8950000 -29.6560000  19.1980000 -15.8180000 -34.6010000
  19.1410000 -16.0720000 -35.5220000  18.6500000 -15.0360000 -34.5330000
  19.1200000 -15.7500000 -34.7100000  23.6690000 -11.7610000 -22.6220000
  23.5780000 -11.8810000 -23.5670000  22.9450000 -11.1830000 -22.3840000
  23.5650000 -11.7020000 -22.7130000  24.7510000 -18.2450000 -31.1700000
  24.3460000 -18.5760000 -30.3680000  24.8580000 -19.0190000 -31.7220000
  24.7130000 -18.3860000 -31.1380000  35.8360000  -2.7860000 -31.4300000
  35.9060000  -3.4150000 -30.7130000  35.9020000  -3.3180000 -32.2230000
  35.8530000  -2.9340000 -31.4400000  25.2940000 -12.1990000 -33.2840000
  25.6670000 -12.2640000 -34.1630000  24.3890000 -12.4950000 -33.3850000
  25.2260000 -12.2460000 -33.4090000  24.9930000  -5.0420000 -34.8500000
  24.2610000  -5.5310000 -35.2260000  25.6530000  -5.0290000 -35.5420000
  24.9830000  -5.1030000 -34.9860000  27.4390000 -15.3020000 -30.8990000
  26.5870000 -15.4400000 -31.3110000  27.4890000 -14.3550000 -30.7630000
  27.3370000 -15.1980000 -30.9340000  19.9390000  -1.6970000 -24.2790000
  19.6460000  -1.9700000 -25.1490000  19.6310000  -0.7950000 -24.1950000
  19.8620000  -1.6170000 -24.3800000  22.3110000 -14.6340000 -21.7080000
  23.1020000 -14.6010000 -22.2450000  21.9510000 -13.7480000 -21.7560000
  22.3660000 -14.5170000 -21.7830000  28.4840000 -11.6310000 -37.6600000
  28.4650000 -10.9810000 -36.9580000  28.8390000 -12.4190000 -37.2480000
  28.5270000 -11.6480000 -37.5180000  33.4670000 -16.3810000 -20.2390000
  33.5280000 -16.7280000 -21.1290000  32.5260000 -16.3330000 -20.0650000
  33.3540000 -16.4190000 -20.3310000  23.8540000  -4.3330000 -24.8810000
  23.2840000  -3.6460000 -24.5340000  23.4020000  -5.1490000 -24.6670000
  23.7230000  -4.3490000 -24.8090000  30.4460000  -2.7520000 -33.7900000
  29.7610000  -2.8240000 -33.1250000  31.2440000  -2.5740000 -33.2930000
  30.4600000  -2.7390000 -33.6410000  28.1570000 -17.1280000 -32.8080000
  27.9320000 -16.3430000 -32.3090000  29.0560000 -16.9760000 -33.1000000
  28.2440000 -17.0080000 -32.7810000  33.5840000 -17.4080000 -27.9380000
  34.4550000 -17.8010000 -27.8810000  33.4850000 -17.1770000 -28.8610000
  33.6830000 -17.4290000 -28.0490000  30.4920000 -17.1410000 -22.8040000
  30.2320000 -17.9170000 -23.3010000  31.4480000 -17.1360000 -22.8520000
  30.5810000 -17.2400000 -22.8740000  33.6090000 -13.5430000 -32.6900000
  33.3880000 -13.7930000 -31.7920000  34.4250000 -14.0090000 -32.8730000
  33.6850000 -13.6350000 -32.5980000  31.4550000  -3.7800000 -37.5430000
  31.0550000  -2.9120000 -37.4930000  30.9790000  -4.3010000 -36.8960000
  31.3430000  -3.7350000 -37.4540000  27.4120000 -14.9930000 -27.5230000
  26.5610000 -15.4240000 -27.6100000  27.5110000 -14.8460000 -26.5820000
  27.3150000 -15.0290000 -27.4140000  26.0430000 -17.9720000 -20.3720000
  25.4900000 -17.6610000 -19.6560000  26.1040000 -17.2260000 -20.9690000
  25.9800000 -17.8370000 -20.3570000  24.8340000  -5.4590000 -31.6870000
  24.1980000  -5.9140000 -31.1360000  24.3460000  -4.7250000 -32.0600000
  24.6910000  -5.4230000 -31.6640000  30.7120000  -3.7880000 -23.4820000
  30.5090000  -4.0980000 -22.6000000  31.2260000  -4.4960000 -23.8720000
  30.7520000  -3.9190000 -23.4190000  33.3570000  -6.1860000 -20.8350000
  32.7170000  -6.7190000 -20.3630000  33.3190000  -6.5090000 -21.7360000
  33.2700000  -6.2960000 -20.8900000  27.1240000  -3.8180000 -20.7000000
  26.7370000  -4.1830000 -21.4960000  26.4760000  -3.1890000 -20.3850000
  26.9910000  -3.7850000 -20.7610000  19.4840000  -4.4640000 -23.3310000
  19.1020000  -3.6210000 -23.0870000  20.3080000  -4.2380000 -23.7620000
  19.5400000  -4.3270000 -23.3550000  21.3870000 -14.8380000 -27.9090000
  21.2930000 -15.3050000 -28.7390000  22.2100000 -15.1610000 -27.5440000
  21.4800000 -14.9390000 -27.9680000  35.0920000  -6.3270000 -32.5860000
  35.1140000  -6.2110000 -31.6360000  35.2650000  -5.4540000 -32.9370000
  35.1170000  -6.2000000 -32.5090000  34.4670000  -0.3870000 -32.2790000
  34.2030000  -0.4220000 -33.1980000  35.0890000  -1.1080000 -32.1800000
  34.5130000  -0.4840000 -32.3840000  31.6410000  -0.3910000 -34.7680000
  31.1250000  -1.0760000 -34.3420000  31.1580000   0.4160000 -34.5940000
  31.5130000  -0.3760000 -34.6910000  23.5500000 -15.5800000 -26.6530000
  24.0020000 -16.1590000 -26.0390000  24.1130000 -15.5650000 -27.4260000
  23.6800000 -15.6520000 -26.6730000  20.1320000 -12.4800000 -22.3840000
  19.5660000 -12.1190000 -23.0660000  19.6360000 -12.3640000 -21.5740000
  19.9960000 -12.4190000 -22.3680000  31.3780000   1.1520000 -26.4670000
  32.1530000   0.9960000 -27.0060000  31.3470000   2.1030000 -26.3610000
  31.4730000   1.2540000 -26.5220000  27.9480000  -2.4360000 -32.2380000
  27.7100000  -3.2490000 -31.7940000  27.1430000  -2.1580000 -32.6750000
  27.8150000  -2.5040000 -32.2370000  33.1410000  -3.0160000 -20.9310000
  33.4110000  -3.9200000 -20.7710000  32.1890000  -3.0290000 -20.8300000
  33.0530000  -3.1330000 -20.8970000  33.4510000  -7.3100000 -23.2340000
  32.8410000  -8.0460000 -23.1780000  33.0190000  -6.6860000 -23.8170000
  33.3180000  -7.3250000 -23.3010000  22.5490000  -6.7220000 -24.8090000
  22.0880000  -6.3780000 -25.5740000  22.6300000  -7.6600000 -24.9810000
  22.5000000  -6.7980000 -24.9290000  20.7450000  -9.0810000 -32.6240000
  21.7010000  -9.0490000 -32.5970000  20.4740000  -8.1640000 -32.5860000
  20.8330000  -8.9600000 -32.6160000  25.5850000 -13.6220000 -19.6810000
  24.8200000 -14.0190000 -19.2630000  25.3310000 -12.7110000 -19.8290000
  25.4540000 -13.5560000 -19.6460000  22.1040000 -15.7910000 -34.6530000
  22.4120000 -15.7260000 -33.7490000  21.1860000 -16.0490000 -34.5740000
  22.0260000 -15.8160000 -34.5270000  31.4130000 -11.5300000 -32.2690000
  32.0330000 -11.0860000 -32.8480000  30.6030000 -11.0260000 -32.3540000
  31.3890000 -11.4080000 -32.3540000  18.0330000  -5.4780000 -36.3080000
  18.6610000  -6.0010000 -35.8090000  18.5270000  -5.1720000 -37.0690000
  18.1770000  -5.5060000 -36.3410000  23.7050000  -3.3940000 -33.0370000
  23.0050000  -2.9960000 -33.5540000  24.1370000  -3.9970000 -33.6430000
  23.6710000  -3.4200000 -33.1810000  32.3060000  -5.4510000 -25.2150000
  32.1330000  -5.5280000 -26.1530000  33.0890000  -4.9040000 -25.1600000
  32.3840000  -5.3910000 -25.3280000  27.1240000  -9.0670000 -30.8960000
  27.6380000  -9.6670000 -31.4360000  26.8500000  -8.3770000 -31.5000000
  27.1540000  -9.0560000 -31.0420000  34.1520000  -0.5000000 -21.6050000
  34.5610000  -0.3280000 -20.7570000  33.8830000  -1.4170000 -21.5600000
  34.1700000  -0.5950000 -21.4910000  33.1660000 -15.8380000 -23.3370000
  32.8790000 -15.0120000 -22.9460000  32.9430000 -15.7540000 -24.2640000
  33.1000000 -15.7210000 -23.4050000  19.6110000  -1.7120000 -36.8500000
  20.1680000  -2.4710000 -36.6780000  20.1790000  -0.9580000 -36.6940000
  19.7550000  -1.7130000 -36.8080000  31.5600000  -7.7260000 -19.5430000
  30.7490000  -7.6880000 -20.0500000  31.9240000  -8.5890000 -19.7380000
  31.5030000  -7.8310000 -19.6330000  24.9000000 -15.6830000 -28.9850000
  24.7220000 -15.0930000 -29.7170000  25.3850000 -16.4100000 -29.3750000
  24.9390000 -15.7000000 -29.1280000  18.5050000  -9.0930000 -30.4080000
  19.1020000  -8.8370000 -31.1120000  18.8080000  -8.5980000 -29.6460000
  18.6200000  -8.9970000 -30.4010000  21.1860000  -5.5860000 -26.6030000
  21.4450000  -4.8930000 -27.2110000  20.3140000  -5.3270000 -26.3040000
  21.1080000  -5.4640000 -26.6430000  34.8740000  -7.9960000 -29.6220000
  35.7270000  -8.3370000 -29.8920000  34.8960000  -8.0250000 -28.6660000
  34.9860000  -8.0440000 -29.5350000  27.8040000 -11.0850000 -21.7170000
  27.0500000 -11.4150000 -22.2060000  27.6030000 -11.2830000 -20.8030000
  27.6820000 -11.1530000 -21.6630000  31.3540000 -11.7620000 -19.6480000
  30.5700000 -11.8010000 -19.1000000  31.9910000 -12.3130000 -19.1940000
  31.3350000 -11.8370000 -19.5200000  33.0200000  -7.3250000 -34.4070000
  33.4160000  -6.9840000 -33.6050000  33.5110000  -6.9060000 -35.1140000
  33.1330000  -7.2280000 -34.3950000  32.7490000 -13.2390000 -22.4450000
  33.4420000 -13.0450000 -21.8130000  32.1130000 -12.5330000 -22.3270000
  32.7560000 -13.1240000 -22.3490000  33.2140000  -0.9690000 -24.9700000
  32.7410000  -0.1360000 -24.9770000  32.6830000  -1.5500000 -25.5140000
  33.0850000  -0.9370000 -25.0400000  25.3260000 -16.2980000 -42.9860000
  25.5540000 -16.3260000 -42.0570000  24.6970000 -17.0100000 -43.0990000
  25.2750000 -16.3930000 -42.8810000  22.7250000  -2.1120000 -42.7260000
  21.7710000  -2.1800000 -42.7580000  22.9140000  -1.8050000 -41.8400000
  22.6260000  -2.0810000 -42.6170000  23.2420000 -18.0120000 -43.4800000
  22.6820000 -17.5640000 -42.8460000  23.0960000 -18.9430000 -43.3130000
  23.1520000 -18.0740000 -43.3780000  27.4560000 -14.5620000 -43.6270000
  26.8530000 -15.2030000 -43.2520000  28.2450000 -14.6310000 -43.0890000
  27.4800000 -14.6520000 -43.5100000  27.9940000 -18.1250000 -37.3490000
  28.8860000 -18.3540000 -37.6130000  27.4720000 -18.2460000 -38.1420000
  28.0420000 -18.1690000 -37.4840000  29.8790000 -14.7360000 -42.3580000
  30.0570000 -15.6180000 -42.0330000  30.1980000 -14.1560000 -41.6670000
  29.9430000 -14.7750000 -42.2280000  27.7690000  -8.5010000 -41.5870000
  27.6410000  -9.3660000 -41.1980000  28.2120000  -8.6760000 -42.4180000
  27.8090000  -8.6340000 -41.6440000  18.8930000 -14.1710000 -43.0300000
  19.1700000 -13.6020000 -42.3120000  18.2910000 -14.7940000 -42.6230000
  18.8520000 -14.1780000 -42.8860000  19.7660000  -7.8340000 -40.4370000
  18.8450000  -8.0540000 -40.5770000  19.8460000  -7.7270000 -39.4900000
  19.6580000  -7.8490000 -40.3340000  31.1460000  -0.8200000 -47.9800000
  31.7320000  -0.0830000 -48.1550000  30.3640000  -0.6340000 -48.4990000
  31.1210000  -0.7020000 -48.0690000  21.5870000 -17.1690000 -41.4420000
  21.7940000 -16.2710000 -41.1850000  21.2310000 -17.5700000 -40.6490000
  21.5680000 -17.1060000 -41.3080000  29.9350000 -12.6800000 -40.4430000
  30.5210000 -12.3670000 -39.7540000  29.2090000 -12.0550000 -40.4430000
  29.9170000 -12.5600000 -40.3550000  24.6690000  -2.5140000 -46.2940000
  24.4080000  -2.8890000 -45.4530000  25.4000000  -3.0590000 -46.5830000
  24.7290000  -2.6320000 -46.2240000  22.9070000  -4.3210000 -47.5790000
  22.1830000  -4.0180000 -48.1270000  23.5010000  -3.5710000 -47.5310000
  22.8910000  -4.1860000 -47.6430000  19.4560000 -14.1670000 -37.3890000
  19.2580000 -14.0860000 -38.3210000  18.6620000 -13.8640000 -36.9470000
  19.3290000 -14.1180000 -37.4520000  25.5300000 -11.6040000 -45.9660000
  26.4110000 -11.3120000 -45.7330000  25.6160000 -11.9380000 -46.8580000
  25.6540000 -11.6090000 -46.0510000  19.4240000  -5.1410000 -38.6320000
  18.6620000  -4.5730000 -38.7490000  19.6290000  -5.4510000 -39.5140000
  19.3520000  -5.1080000 -38.7600000  21.4950000  -3.8460000 -37.2950000
  21.9780000  -3.2850000 -37.9020000  21.0520000  -4.4820000 -37.8560000
  21.5000000  -3.8550000 -37.4440000  25.1210000  -2.1100000 -38.4970000
  25.6950000  -2.1970000 -37.7360000  25.0790000  -1.1680000 -38.6590000
  25.1890000  -2.0010000 -38.4210000  29.8270000 -15.7850000 -47.7820000
  28.8750000 -15.8480000 -47.7110000  30.1550000 -16.5130000 -47.2540000
  29.7470000 -15.8860000 -47.7050000  34.9560000  -7.7770000 -45.6600000
  35.3960000  -7.2700000 -44.9770000  34.2840000  -8.2740000 -45.1940000
  34.9270000  -7.7760000 -45.5130000  25.4760000  -8.2560000 -38.5960000
  25.3190000  -9.2000000 -38.6320000  25.3870000  -7.9640000 -39.5030000
  25.4440000  -8.3400000 -38.7170000  34.9480000 -13.6120000 -46.5910000
  35.8600000 -13.6010000 -46.2980000  34.9480000 -14.1970000 -47.3490000
  35.0650000 -13.6860000 -46.6500000  32.7930000  -9.2750000 -44.7400000
  31.9180000  -9.5320000 -45.0300000  33.1450000 -10.0580000 -44.3150000
  32.7260000  -9.4080000 -44.7230000  22.5010000  -2.3590000 -39.5820000
  22.2500000  -1.4550000 -39.3910000  23.4070000  -2.4240000 -39.2790000
  22.5860000  -2.2510000 -39.5190000  19.7040000 -17.3700000 -46.0270000
  20.5380000 -16.9160000 -46.1510000  19.1160000 -16.9710000 -46.6670000
  19.7360000 -17.2610000 -46.1240000  20.8030000 -18.2370000 -39.0150000
  19.9700000 -18.6640000 -38.8140000  20.7700000 -17.4100000 -38.5350000
  20.6920000 -18.1860000 -38.9280000  27.1380000 -12.7750000 -48.2770000
  27.2240000 -13.5590000 -47.7330000  27.5780000 -12.0880000 -47.7770000
  27.2050000 -12.7870000 -48.1440000  30.2640000  -4.7510000 -39.8070000
  30.8460000  -4.9150000 -39.0660000  29.6700000  -4.0650000 -39.4990000
  30.2620000  -4.6840000 -39.6730000  26.5660000  -4.2870000 -47.0680000
  26.0860000  -5.0950000 -46.8910000  27.2950000  -4.3010000 -46.4490000
  26.5980000  -4.3920000 -46.9660000  26.1090000 -11.7860000 -42.6810000
  25.2640000 -12.1060000 -42.3640000  26.5820000 -12.5770000 -42.9400000
  26.0610000 -11.9280000 -42.6730000  23.0360000  -6.6000000 -38.3470000
  23.8470000  -7.0880000 -38.4890000  22.7670000  -6.3230000 -39.2230000
  23.1050000  -6.6270000 -38.4780000  25.2980000  -7.5600000 -41.3190000
  26.1780000  -7.9330000 -41.3710000  24.7600000  -8.1410000 -41.8560000
  25.3420000  -7.6820000 -41.3940000  34.2870000  -3.8490000 -42.9620000
  33.9360000  -3.9520000 -42.0770000  34.4350000  -2.9070000 -43.0520000
  34.2610000  -3.7420000 -42.8600000  31.7420000  -9.3030000 -41.6700000
  31.1850000  -9.6970000 -42.3420000  31.1660000  -8.6930000 -41.2100000
  31.5970000  -9.2750000 -41.6970000  35.6560000 -10.0420000 -38.4760000
  34.8330000  -9.7020000 -38.8250000  35.5120000 -10.0980000 -37.5310000
  35.5330000 -10.0060000 -38.4000000  22.5810000  -9.7250000 -44.0440000
  22.2040000  -9.8520000 -43.1740000  22.0180000 -10.2360000 -44.6260000
  22.4610000  -9.8060000 -44.0070000  31.5880000  -8.2150000 -48.5890000
  32.1330000  -7.7140000 -47.9820000  30.8940000  -7.6080000 -48.8460000
  31.5690000  -8.0740000 -48.5440000  19.5710000  -6.6490000 -47.7680000
  19.9650000  -6.7190000 -48.6380000  20.1830000  -7.1040000 -47.1900000
  19.7000000  -6.7160000 -47.8060000  22.7290000 -15.2520000 -37.9530000
  22.5760000 -14.9720000 -38.8560000  22.4920000 -14.4920000 -37.4230000
  22.6790000 -15.1190000 -38.0010000  30.2280000  -1.1260000 -42.7990000
  29.6790000  -1.1950000 -43.5790000  30.5920000  -2.0030000 -42.6830000
  30.2050000  -1.2470000 -42.8840000  24.6620000 -11.1310000 -38.8480000
  24.5470000 -11.4150000 -39.7550000  23.7710000 -11.0280000 -38.5150000
  24.5330000 -11.1540000 -38.9220000  23.7070000 -12.8040000 -44.0020000
  23.1170000 -13.5430000 -44.1540000  24.3190000 -12.8320000 -44.7370000
  23.7100000 -12.9020000 -44.1160000  25.0920000  -6.6120000 -45.9700000
  25.0520000  -7.5670000 -46.0070000  24.6370000  -6.3840000 -45.1600000
  25.0290000  -6.7050000 -45.8710000  33.0570000  -9.9590000 -39.2880000
  32.3660000 -10.5990000 -39.1200000  32.8490000  -9.6030000 -40.1510000
  32.9420000  -9.9960000 -39.3770000  28.9350000  -4.0010000 -45.5600000
  28.8710000  -4.5210000 -44.7580000  29.4800000  -3.2520000 -45.3170000
  28.9960000  -3.9720000 -45.4260000  20.7470000  -0.9130000 -47.7810000
  20.2050000  -0.4900000 -47.1140000  21.6460000  -0.7160000 -47.5190000
  20.7920000  -0.8330000 -47.6620000  22.2880000  -6.8480000 -40.8610000
  22.2500000  -6.5310000 -41.7630000  21.4160000  -7.2070000 -40.6960000
  22.1710000  -6.8540000 -40.9550000  26.1960000  -5.1080000 -42.2860000
  25.4130000  -4.7020000 -42.6550000  25.9080000  -5.9790000 -42.0130000
  26.0590000  -5.1680000 -42.2980000  19.9340000  -3.0960000 -45.5430000
  20.5890000  -2.7350000 -46.1400000  19.2560000  -3.4510000 -46.1180000
  19.9310000  -3.0950000 -45.6930000  35.2460000 -21.2050000 -46.2920000
  35.3920000 -20.7990000 -45.4370000  34.3010000 -21.1360000 -46.4310000
  35.1440000 -21.1440000 -46.2000000  25.2220000  -9.1510000 -43.8070000
  25.5470000  -9.9540000 -43.4000000  24.3530000  -9.3830000 -44.1330000
  25.1520000  -9.2830000 -43.7970000  20.8380000  -8.2170000 -37.8380000
  21.6410000  -7.7070000 -37.9470000  20.3880000  -7.7990000 -37.1040000
  20.8830000  -8.0980000 -37.7580000  19.2610000 -13.5300000 -45.6830000
  20.0590000 -13.8800000 -46.0780000  19.2410000 -13.9100000 -44.8050000
  19.3600000 -13.6240000 -45.6210000  28.6550000 -10.4730000 -47.9550000
  28.2480000  -9.7130000 -48.3710000  29.5170000 -10.5380000 -48.3650000
  28.7130000 -10.3840000 -48.0610000  21.3460000  -8.7430000 -46.9700000
  22.3030000  -8.7590000 -46.9890000  21.1010000  -9.5570000 -46.5300000
  21.4370000  -8.8490000 -46.9160000  31.6490000 -14.7330000 -44.4310000
  31.1950000 -14.2910000 -45.1490000  31.1070000 -14.5580000 -43.6620000
  31.5220000 -14.6540000 -44.4250000  30.1880000 -13.2570000 -46.6210000
  30.8140000 -12.8070000 -47.1880000  30.0460000 -14.1040000 -47.0450000
  30.2500000 -13.3080000 -46.7480000  28.7230000  -5.3800000 -43.1220000
  29.1160000  -4.5590000 -42.8260000  27.8100000  -5.3250000 -42.8400000
  28.6570000  -5.2680000 -43.0480000  33.9470000 -12.0960000 -43.9730000
  33.6820000 -12.7480000 -43.3230000  34.1660000 -12.6090000 -44.7510000
  33.9410000 -12.2450000 -43.9890000  26.3490000 -15.4430000 -40.5080000
  27.2710000 -15.3670000 -40.2640000  25.8970000 -14.8260000 -39.9330000
  26.4090000 -15.3550000 -40.4040000  23.3400000 -18.4330000 -47.5890000
  23.5110000 -17.5120000 -47.3900000  23.9060000 -18.9170000 -46.9880000
  23.4340000 -18.3770000 -47.4870000  24.1940000  -9.3060000 -47.1960000
  24.4510000  -9.7240000 -48.0180000  24.2780000  -9.9980000 -46.5400000
  24.2380000  -9.4480000 -47.2170000  31.5060000  -4.8510000 -46.7370000
  31.6040000  -4.6040000 -47.6570000  30.6520000  -4.5010000 -46.4850000
  31.4090000  -4.7750000 -46.8220000  35.0000000 -18.5670000 -37.7730000
  34.4590000 -19.0820000 -37.1750000  34.5360000 -17.7340000 -37.8600000
  34.8720000 -18.5260000 -37.7070000  32.5940000  -2.4250000 -46.1980000
  32.0500000  -1.8250000 -46.7090000  32.2030000  -3.2860000 -46.3440000
  32.4750000  -2.4580000 -46.2820000  26.6860000  -0.0570000 -47.2250000
  26.6520000  -0.7440000 -46.5600000  27.1620000  -0.4520000 -47.9550000
  26.7420000  -0.1950000 -47.2330000  28.1970000 -11.9480000 -45.4210000
  27.7480000 -12.7020000 -45.0390000  28.9190000 -12.3280000 -45.9210000
  28.2320000 -12.0930000 -45.4360000  29.7320000  -7.8240000 -43.7090000
  29.4560000  -7.0000000 -43.3070000  30.6830000  -7.8370000 -43.6000000
  29.8190000  -7.7200000 -43.6440000  29.0880000  -0.6010000 -45.4600000
  29.8780000  -0.0630000 -45.5140000  28.4880000  -0.2090000 -46.0940000
  29.1120000  -0.4820000 -45.5480000  28.8710000 -14.8670000 -39.0190000
  28.4050000 -14.2690000 -38.4350000  29.4660000 -14.3030000 -39.5140000
  28.8870000 -14.7190000 -39.0080000  21.1180000  -9.9760000 -41.5720000
  20.4390000  -9.3370000 -41.3520000  20.7090000 -10.8250000 -41.4090000
  20.9780000 -10.0030000 -41.5230000  19.2660000 -17.0670000 -42.9900000
  20.1280000 -17.1060000 -42.5760000  19.4520000 -16.9170000 -43.9170000
  19.4000000 -17.0530000 -43.0560000  30.1830000  -9.5340000 -45.6230000
  29.9150000  -8.8910000 -44.9650000  29.3840000  -9.7160000 -46.1190000
  30.0460000  -9.4750000 -45.6030000  18.7250000 -11.8960000 -39.0030000
  18.1250000 -11.1630000 -38.8620000  19.2720000 -11.9130000 -38.2170000
  18.7180000 -11.8040000 -38.8840000  30.1600000 -11.2000000 -43.0610000
  29.9970000 -10.8910000 -43.9520000  29.2990000 -11.4640000 -42.7380000
  30.0290000 -11.1940000 -43.1330000  30.3820000 -16.9790000 -38.9230000
  30.3790000 -17.2690000 -39.8350000  29.7100000 -16.2980000 -38.8860000
  30.2950000 -16.9290000 -39.0350000  30.0920000  -7.5370000 -40.5250000
  29.2740000  -7.6930000 -40.9960000  30.1400000  -6.5850000 -40.4360000
  29.9940000  -7.4350000 -40.5740000  34.4420000 -12.8410000 -39.2940000
  35.1550000 -13.4730000 -39.1990000  34.8820000 -12.0040000 -39.4400000
  34.5890000 -12.8150000 -39.3010000  20.4710000 -11.0590000 -45.7720000
  19.6920000 -10.5530000 -45.5410000  20.2090000 -11.9720000 -45.6490000
  20.3380000 -11.1110000 -45.7270000  23.5670000  -6.9020000 -48.6660000
  23.4800000  -6.1220000 -48.1170000  23.6390000  -7.6260000 -48.0430000
  23.5650000  -6.8950000 -48.5160000  23.6690000 -11.7610000 -41.4820000
  23.5780000 -11.8810000 -42.4270000  22.9450000 -11.1830000 -41.2440000
  23.5650000 -11.7020000 -41.5730000  19.9390000  -1.6970000 -43.1390000
  19.6460000  -1.9700000 -44.0090000  19.6310000  -0.7950000 -43.0550000
  19.8620000  -1.6170000 -43.2400000  22.3110000 -14.6340000 -40.5680000
  23.1020000 -14.6010000 -41.1050000  21.9510000 -13.7480000 -40.6160000
  22.3660000 -14.5170000 -40.6430000  33.4670000 -16.3810000 -39.0990000
  33.5280000 -16.7280000 -39.9890000  32.5260000 -16.3330000 -38.9250000
  33.3540000 -16.4190000 -39.1910000  23.8540000  -4.3330000 -43.7410000
  23.2840000  -3.6460000 -43.3940000  23.4020000  -5.1490000 -43.5270000
  23.7230000  -4.3490000 -43.6690000  33.5840000 -17.4080000 -46.7980000
  34.4550000 -17.8010000 -46.7410000  33.4850000 -17.1770000 -47.7210000
  33.6830000 -17.4290000 -46.9090000  30.4920000 -17.1410000 -41.6640000
  30.2320000 -17.9170000 -42.1610000  31.4480000 -17.1360000 -41.7120000
  30.5810000 -17.2400000 -41.7330000  27.4120000 -14.9930000 -46.3830000
  26.5610000 -15.4240000 -46.4700000  27.5110000 -14.8460000 -45.4420000
  27.3150000 -15.0290000 -46.2740000  26.0430000 -17.9720000 -39.2320000
  25.4900000 -17.6610000 -38.5160000  26.1040000 -17.2260000 -39.8290000
  25.9800000 -17.8370000 -39.2170000  30.7120000  -3.7880000 -42.3420000
  30.5090000  -4.0980000 -41.4600000  31.2260000  -4.4960000 -42.7320000
  30.7520000  -3.9190000 -42.2790000  33.3570000  -6.1860000 -39.6950000
  32.7170000  -6.7190000 -39.2230000  33.3190000  -6.5090000 -40.5960000
  33.2700000  -6.2960000 -39.7500000  27.1240000  -3.8180000 -39.5600000
  26.7370000  -4.1830000 -40.3560000  26.4760000  -3.1890000 -39.2450000
  26.9910000  -3.7850000 -39.6210000  19.4840000  -4.4640000 -42.1900000
  19.1020000  -3.6210000 -41.9470000  20.3080000  -4.2380000 -42.6220000
  19.5400000  -4.3270000 -42.2150000  21.3870000 -14.8380000 -46.7690000
  21.2930000 -15.3050000 -47.5990000  22.2100000 -15.1610000 -46.4040000
  21.4800000 -14.9390000 -46.8280000  23.5500000 -15.5800000 -45.5130000
  24.0020000 -16.1590000 -44.8990000  24.1130000 -15.5650000 -46.2860000
  23.6800000 -15.6520000 -45.5330000  20.1320000 -12.4800000 -41.2440000
  19.5660000 -12.1190000 -41.9260000  19.6360000 -12.3640000 -40.4340000
  19.9960000 -12.4190000 -41.2280000  31.3780000   1.1520000 -45.3270000
  32.1530000   0.9960000 -45.8660000  31.3470000   2.1030000 -45.2210000
  31.4730000   1.2540000 -45.3820000  33.1410000  -3.0160000 -39.7910000
  33.4110000  -3.9200000 -39.6310000  32.1890000  -3.0290000 -39.6900000
  33.0530000  -3.1330000 -39.7570000  33.4510000  -7.3100000 -42.0940000
  32.8410000  -8.0460000 -42.0380000  33.0190000  -6.6860000 -42.6770000
  33.3180000  -7.3250000 -42.1610000  22.5490000  -6.7220000 -43.6690000
  22.0880000  -6.3780000 -44.4340000  22.6300000  -7.6600000 -43.8400000
  22.5000000  -6.7980000 -43.7890000  25.5850000 -13.6220000 -38.5410000
  24.8200000 -14.0190000 -38.1230000  25.3310000 -12.7110000 -38.6890000
  25.4540000 -13.5560000 -38.5060000  32.3060000  -5.4510000 -44.0750000
  32.1330000  -5.5280000 -45.0130000  33.0890000  -4.9040000 -44.0200000
  32.3840000  -5.3910000 -44.1880000  34.1520000  -0.5000000 -40.4650000
  34.5610000  -0.3280000 -39.6170000  33.8830000  -1.4170000 -40.4200000
  34.1700000  -0.5950000 -40.3510000  33.1660000 -15.8380000 -42.1970000
  32.8790000 -15.0120000 -41.8060000  32.9430000 -15.7540000 -43.1240000
  33.1000000 -15.7210000 -42.2650000  31.5600000  -7.7260000 -38.4030000
  30.7490000  -7.6880000 -38.9100000  31.9240000  -8.5890000 -38.5980000
  31.5030000  -7.8310000 -38.4930000  24.9000000 -15.6830000 -47.8450000
  24.7220000 -15.0930000 -48.5770000  25.3850000 -16.4100000 -48.2350000
  24.9390000 -15.7000000 -47.9880000  21.1860000  -5.5860000 -45.4630000
  21.4450000  -4.8930000 -46.0710000  20.3140000  -5.3270000 -45.1640000
  21.1080000  -5.4640000 -45.5030000  34.8740000  -7.9960000 -48.4820000
  35.7270000  -8.3370000 -48.7520000  34.8960000  -8.0250000 -47.5260000
  34.9860000  -8.0440000 -48.3950000  27.8040000 -11.0850000 -40.5770000
  27.0500000 -11.4150000 -41.0650000  27.6030000 -11.2830000 -39.6630000
  27.6820000 -11.1530000 -40.5230000  31.3540000 -11.7620000 -38.5080000
  30.5700000 -11.8010000 -37.9600000  31.9910000 -12.3130000 -38.0540000
  31.3350000 -11.8370000 -38.3800000  32.7490000 -13.2390000 -41.3050000
  33.4420000 -13.0450000 -40.6730000  32.1130000 -12.5330000 -41.1870000
  32.7560000 -13.1240000 -41.2090000  33.2140000  -0.9690000 -43.8300000
  32.7410000  -0.1360000 -43.8370000  32.6830000  -1.5500000 -44.3740000
  33.0850000  -0.9370000 -43.9000000  27.4900000 -23.5350000  44.7380000
  27.3160000 -23.3740000  45.6650000  26.7250000 -24.0210000  44.4320000
  27.3700000 -23.5770000  44.8180000  24.0610000 -28.6380000  40.0680000
  23.9070000 -28.1810000  40.8950000  24.7730000 -29.2480000  40.2600000
  24.1320000 -28.6580000  40.1980000  34.2220000 -22.4800000  38.2550000
  33.3600000 -22.1510000  37.9980000  34.1260000 -23.4310000  38.2530000
  34.0990000 -22.5590000  38.2220000  20.9480000 -22.3820000  45.0320000
  20.9860000 -21.4890000  44.6870000  20.1490000 -22.4030000  45.5580000
  20.8510000 -22.2700000  45.0550000  25.6590000 -20.5920000  41.7200000
  24.8600000 -21.1190000  41.7300000  26.0030000 -20.6950000  40.8330000
  25.6010000 -20.6730000  41.6080000  29.5670000 -25.6070000  44.1870000
  29.1410000 -26.2140000  43.5830000  28.9040000 -24.9400000  44.3650000
  29.4280000 -25.5990000  44.1330000  30.6450000 -26.4160000  39.7320000
  31.4150000 -26.3950000  40.2990000  30.9640000 -26.7840000  38.9090000
  30.7840000 -26.4600000  39.6990000  34.3630000 -25.1790000  38.4800000
  34.4050000 -25.3130000  37.5320000  35.2490000 -24.9120000  38.7220000
  34.4820000 -25.1620000  38.3890000  31.3560000 -23.0120000  45.0680000
  31.5320000 -22.1620000  44.6650000  30.5970000 -23.3490000  44.5940000
  31.2820000 -22.9460000  44.9570000  31.1460000 -19.6870000  46.3200000
  31.7320000 -18.9500000  46.1450000  30.3640000 -19.5010000  45.8020000
  31.1210000 -19.5690000  46.2320000  27.5550000 -31.0460000  43.3890000
  26.7300000 -31.0650000  42.9040000  27.3040000 -31.2320000  44.2940000
  27.4170000 -31.0720000  43.4430000  24.6690000 -21.3810000  48.0070000
  24.4080000 -21.7560000  48.8480000  25.4000000 -21.9260000  47.7180000
  24.7290000 -21.4990000  48.0770000  22.9070000 -23.1880000  46.7220000
  22.1830000 -22.8850000  46.1730000  23.5010000 -22.4380000  46.7690000
  22.8910000 -23.0530000  46.6570000  22.3800000 -29.4240000  38.0590000
  21.7770000 -28.6870000  37.9640000  23.0090000 -29.1350000  38.7200000
  22.3830000 -29.2930000  38.1320000  26.8070000 -20.9620000  39.3520000
  27.2660000 -21.7840000  39.5240000  27.5050000 -20.3220000  39.2140000
  26.9550000 -20.9850000  39.3570000  25.5300000 -30.4710000  48.3340000
  26.4110000 -30.1800000  48.5670000  25.6160000 -30.8050000  47.4420000
  25.6540000 -30.4760000  48.2500000  34.9560000 -26.6440000  48.6400000
  35.3960000 -26.1370000  49.3230000  34.2840000 -27.1410000  49.1070000
  34.9270000 -26.6430000  48.7870000  29.6830000 -23.8150000  39.8070000
  29.9870000 -24.7080000  39.9630000  30.2100000 -23.2750000  40.3950000
  29.7890000 -23.8600000  39.9010000  20.2130000 -19.4200000  42.5430000
  19.4320000 -19.5520000  42.0050000  20.1830000 -18.4950000  42.7870000
  20.1090000 -19.3180000  42.5050000  26.5660000 -23.1550000  47.2320000
  26.0860000 -23.9620000  47.4090000  27.2950000 -23.1680000  47.8520000
  26.5980000 -23.2600000  47.3340000  21.9440000 -20.8950000  41.0770000
  21.3620000 -20.3970000  41.6500000  22.1730000 -20.2840000  40.3760000
  21.8990000 -20.7530000  41.0600000  31.5880000 -27.0820000  45.7120000
  32.1330000 -26.5810000  46.3180000  30.8940000 -26.4750000  45.4550000
  31.5690000 -26.9410000  45.7570000  19.5710000 -25.5160000  46.5320000
  19.9650000 -25.5860000  45.6620000  20.1830000 -25.9710000  47.1100000
  19.7000000 -25.5830000  46.4940000  34.2920000 -29.8360000  41.9040000
  34.2490000 -29.2170000  42.6350000  33.9260000 -30.6470000  42.2570000
  34.2400000 -29.8600000  42.0430000  29.0420000 -28.9720000  42.3830000
  28.3700000 -29.6530000  42.4130000  29.1210000 -28.7550000  41.4550000
  28.9660000 -29.0310000  42.2680000  25.0920000 -25.4800000  48.3300000
  25.0520000 -26.4350000  48.2930000  24.6370000 -25.2510000  49.1400000
  25.0290000 -25.5720000  48.4300000  18.6750000 -29.7240000  42.1500000
  19.3400000 -29.1240000  42.4880000  17.8430000 -29.2900000  42.3390000
  18.6540000 -29.5920000  42.2180000  21.0080000 -25.2800000  44.3520000
  21.6870000 -25.5590000  44.9650000  21.1060000 -24.3300000  44.3030000
  21.1070000 -25.1930000  44.4250000  26.4220000 -26.5430000  39.4390000
  26.0390000 -26.8530000  38.6170000  26.6610000 -25.6320000  39.2630000
  26.4040000 -26.4660000  39.3120000  34.4340000 -23.9720000  45.3600000
  33.5190000 -23.9620000  45.0770000  34.5560000 -24.8400000  45.7440000
  34.3320000 -24.0820000  45.3730000  24.0560000 -27.6550000  42.4430000
  24.8790000 -27.1690000  42.4050000  24.1070000 -28.1500000  43.2600000
  24.1680000 -27.6560000  42.5430000  20.7470000 -19.7800000  46.5190000
  20.2050000 -19.3570000  47.1870000  21.6460000 -19.5830000  46.7820000
  20.7920000 -19.7000000  46.6380000  26.3510000 -26.0180000  42.4450000
  25.8280000 -25.3150000  42.8320000  26.3630000 -25.8220000  41.5100000
  26.2860000 -25.9030000  42.3750000  33.3940000 -31.1510000  38.6100000
  33.8720000 -31.5050000  37.8610000  33.8960000 -30.3800000  38.8720000
  33.5190000 -31.0970000  38.5470000  19.9340000 -21.9630000  48.7570000
  20.5890000 -21.6020000  48.1600000  19.2560000 -22.3180000  48.1830000
  19.9310000 -21.9620000  48.6070000  31.3340000 -29.9360000  45.7230000
  31.8320000 -30.1430000  44.9320000  31.5180000 -29.0110000  45.8870000
  31.4210000 -29.8440000  45.6420000  19.9230000 -26.1530000  39.9210000
  20.6900000 -26.4760000  40.3970000  19.1810000 -26.3920000  40.4760000
  19.9260000 -26.2250000  40.0530000  28.6550000 -29.3400000  46.3450000
  28.2480000 -28.5800000  45.9300000  29.5170000 -29.4050000  45.9350000
  28.7130000 -29.2510000  46.2390000  33.1920000 -28.1010000  43.8270000
  33.8660000 -27.6900000  44.3680000  32.3820000 -27.6550000  44.0730000
  33.1750000 -27.9910000  43.9280000  21.3460000 -27.6100000  47.3300000
  22.3030000 -27.6260000  47.3120000  21.1010000 -28.4240000  47.7700000
  21.4370000 -27.7160000  47.3850000  24.6930000 -29.1700000  44.5530000
  24.8810000 -29.9220000  43.9900000  25.5490000 -28.7800000  44.7230000
  24.8260000 -29.2160000  44.5030000  27.1430000 -23.9630000  38.8360000
  27.9870000 -24.0010000  39.2870000  27.3660000 -23.7580000  37.9280000
  27.2800000 -23.9420000  38.7780000  24.1940000 -28.1730000  47.1050000
  24.4510000 -28.5910000  46.2820000  24.2780000 -28.8650000  47.7600000
  24.2380000 -28.3150000  47.0830000  31.5060000 -23.7180000  47.5640000
  31.6040000 -23.4710000  46.6430000  30.6520000 -23.3680000  47.8150000
  31.4090000 -23.6420000  47.4780000  28.8960000 -19.3040000  44.9030000
  28.7110000 -20.1310000  44.4570000  28.5840000 -18.6310000  44.2970000
  28.8320000 -19.3240000  44.7670000  30.4840000 -20.0690000  37.9920000
  30.6420000 -19.2300000  37.5590000  30.7460000 -19.9220000  38.9010000
  30.5380000 -19.9430000  38.0530000  32.5940000 -21.2920000  48.1020000
  32.0500000 -20.6920000  47.5920000  32.2030000 -22.1530000  47.9570000
  32.4750000 -21.3250000  48.0180000  26.6860000 -18.9240000  47.0760000
  26.6520000 -19.6110000  47.7400000  27.1620000 -19.3190000  46.3450000
  26.7420000 -19.0620000  47.0680000  28.5650000 -28.1960000  39.7630000
  29.2950000 -27.5760000  39.7530000  27.7830000 -27.6450000  39.7320000
  28.5580000 -28.0460000  39.7570000  28.1970000 -30.8150000  48.8800000
  27.7480000 -31.5690000  49.2620000  28.9190000 -31.1950000  48.3800000
  28.2320000 -30.9600000  48.8640000  29.0880000 -19.4680000  48.8400000
  29.8780000 -18.9300000  48.7870000  28.4880000 -19.0760000  48.2070000
  29.1120000 -19.3490000  48.7530000  32.0780000 -20.8380000  43.6930000
  31.7100000 -20.2570000  44.3570000  32.9690000 -20.5150000  43.5580000
  32.1450000 -20.7220000  43.7600000  30.1830000 -28.4010000  48.6780000
  29.9150000 -27.7580000  49.3350000  29.3840000 -28.5830000  48.1820000
  30.0460000 -28.3420000  48.6980000  22.9570000 -25.1470000  39.6690000
  23.0430000 -25.1980000  38.7170000  22.4040000 -24.3790000  39.8180000
  22.8970000 -25.0550000  39.5670000  20.4710000 -29.9260000  48.5280000
  19.6920000 -29.4200000  48.7600000  20.2090000 -30.8390000  48.6520000
  20.3380000 -29.9780000  48.5730000  23.5670000 -25.7690000  45.6350000
  23.4800000 -24.9890000  46.1830000  23.6390000 -26.4930000  46.2570000
  23.5650000 -25.7620000  45.7840000  35.8360000 -21.6530000  44.0100000
  35.9060000 -22.2820000  44.7270000  35.9020000 -22.1850000  43.2180000
  35.8530000 -21.8010000  44.0000000  25.2940000 -31.0660000  42.1570000
  25.6670000 -31.1310000  41.2780000  24.3890000 -31.3620000  42.0550000
  25.2260000 -31.1130000  42.0320000  24.9930000 -23.9090000  40.5910000
  24.2610000 -24.3980000  40.2140000  25.6530000 -23.8960000  39.8980000
  24.9830000 -23.9700000  40.4550000  28.4840000 -30.4980000  37.7800000
  28.4650000 -29.8480000  38.4820000  28.8390000 -31.2860000  38.1920000
  28.5270000 -30.5150000  37.9220000  30.4460000 -21.6190000  41.6500000
  29.7610000 -21.6910000  42.3150000  31.2440000 -21.4410000  42.1470000
  30.4600000 -21.6060000  41.8000000  31.4550000 -22.6470000  37.8970000
  31.0550000 -21.7800000  37.9470000  30.9790000 -23.1680000  38.5440000
  31.3430000 -22.6020000  37.9860000  24.8340000 -24.3260000  43.7530000
  24.1980000 -24.7810000  44.3050000  24.3460000 -23.5920000  43.3800000
  24.6910000 -24.2900000  43.7770000  35.0920000 -25.1940000  42.8550000
  35.1140000 -25.0780000  43.8050000  35.2650000 -24.3210000  42.5030000
  35.1170000 -25.0670000  42.9320000  34.4670000 -19.2540000  43.1620000
  34.2030000 -19.2900000  42.2430000  35.0890000 -19.9750000  43.2600000
  34.5130000 -19.3510000  43.0570000  31.6410000 -19.2580000  40.6720000
  31.1250000 -19.9430000  41.0980000  31.1580000 -18.4510000  40.8460000
  31.5130000 -19.2430000  40.7500000  31.3780000 -17.7150000  48.9730000
  32.1530000 -17.8710000  48.4340000  31.3470000 -16.7640000  49.0800000
  31.4730000 -17.6130000  48.9180000  27.9480000 -21.3030000  43.2020000
  27.7100000 -22.1160000  43.6470000  27.1430000 -21.0250000  42.7650000
  27.8150000 -21.3710000  43.2030000  20.7450000 -27.9480000  42.8170000
  21.7010000 -27.9160000  42.8430000  20.4740000 -27.0310000  42.8550000
  20.8330000 -27.8270000  42.8250000  31.4130000 -30.3970000  43.1720000
  32.0330000 -29.9530000  42.5930000  30.6030000 -29.8930000  43.0870000
  31.3890000 -30.2750000  43.0870000  18.0330000 -24.3450000  39.1320000
  18.6610000 -24.8680000  39.6320000  18.5270000 -24.0400000  38.3710000
  18.1770000 -24.3730000  39.1000000  23.7050000 -22.2610000  42.4030000
  23.0050000 -21.8630000  41.8860000  24.1370000 -22.8640000  41.7970000
  23.6710000 -22.2870000  42.2600000  27.1240000 -27.9350000  44.5440000
  27.6380000 -28.5340000  44.0050000  26.8500000 -27.2440000  43.9400000
  27.1540000 -27.9230000  44.3980000  19.6110000 -20.5800000  38.5910000
  20.1680000 -21.3380000  38.7620000  20.1790000 -19.8250000  38.7460000
  19.7550000 -20.5800000  38.6320000  18.5050000 -27.9600000  45.0320000
  19.1020000 -27.7050000  44.3280000  18.8080000 -27.4650000  45.7940000
  18.6200000 -27.8650000  45.0400000  21.1860000 -24.4530000  48.8370000
  21.4450000 -23.7600000  48.2300000  20.3140000 -24.1940000  49.1370000
  21.1080000 -24.3310000  48.7970000  34.8740000 -26.8630000  45.8180000
  35.7270000 -27.2050000  45.5480000  34.8960000 -26.8920000  46.7750000
  34.9860000 -26.9110000  45.9050000  33.0200000 -26.1920000  41.0330000
  33.4160000 -25.8510000  41.8350000  33.5110000 -25.7730000  40.3270000
  33.1330000 -26.0950000  41.0460000  22.7250000 -20.9800000  32.7140000
  21.7710000 -21.0470000  32.6820000  22.9140000 -20.6720000  33.6000000
  22.6260000 -20.9480000  32.8230000  27.4900000 -23.5350000  25.8770000
  27.3160000 -23.3740000  26.8050000  26.7250000 -24.0210000  25.5710000
  27.3700000 -23.5770000  25.9570000  24.0610000 -28.6380000  21.2080000
  23.9070000 -28.1810000  22.0350000  24.7730000 -29.2480000  21.4000000
  24.1320000 -28.6580000  21.3380000  34.2220000 -22.4800000  19.3940000
  33.3600000 -22.1510000  19.1380000  34.1260000 -23.4310000  19.3930000
  34.0990000 -22.5590000  19.3610000  20.9480000 -22.3820000  26.1710000
  20.9860000 -21.4890000  25.8270000  20.1490000 -22.4030000  26.6970000
  20.8510000 -22.2700000  26.1940000  25.6590000 -20.5920000  22.8600000
  24.8600000 -21.1190000  22.8700000  26.0030000 -20.6950000  21.9730000
  25.6010000 -20.6730000  22.7480000  29.5670000 -25.6070000  25.3270000
  29.1410000 -26.2140000  24.7230000  28.9040000 -24.9400000  25.5050000
  29.4280000 -25.5990000  25.2730000  27.7690000 -27.3680000  33.8530000
  27.6410000 -28.2340000  34.2420000  28.2120000 -27.5430000  33.0220000
  27.8090000 -27.5010000  33.7960000  30.6450000 -26.4160000  20.8720000
  31.4150000 -26.3950000  21.4390000  30.9640000 -26.7840000  20.0480000
  30.7840000 -26.4600000  20.8390000  34.3630000 -25.1790000  19.6190000
  34.4050000 -25.3130000  18.6720000  35.2490000 -24.9120000  19.8620000
  34.4820000 -25.1620000  19.5290000  19.7660000 -26.7010000  35.0030000
  18.8450000 -26.9210000  34.8630000  19.8460000 -26.5940000  35.9500000
  19.6580000 -26.7160000  35.1060000  31.3560000 -23.0120000  26.2080000
  31.5320000 -22.1620000  25.8050000  30.5970000 -23.3490000  25.7340000
  31.2820000 -22.9460000  26.0960000  31.1460000 -19.6870000  27.4600000
  31.7320000 -18.9500000  27.2850000  30.3640000 -19.5010000  26.9410000
  31.1210000 -19.5690000  27.3710000  29.9350000 -31.5470000  34.9970000
  30.5210000 -31.2340000  35.6860000  29.2090000 -30.9220000  34.9970000
  29.9170000 -31.4280000  35.0850000  27.5550000 -31.0460000  24.5290000
  26.7300000 -31.0650000  24.0440000  27.3040000 -31.2320000  25.4340000
  27.4170000 -31.0720000  24.5830000  24.6690000 -21.3810000  29.1460000
  24.4080000 -21.7560000  29.9870000  25.4000000 -21.9260000  28.8570000
  24.7290000 -21.4990000  29.2160000  22.9070000 -23.1880000  27.8610000
  22.1830000 -22.8850000  27.3130000  23.5010000 -22.4380000  27.9090000
  22.8910000 -23.0530000  27.7970000  22.3800000 -29.4240000  19.1990000
  21.7770000 -28.6870000  19.1030000  23.0090000 -29.1350000  19.8600000
  22.3830000 -29.2930000  19.2710000  26.8070000 -20.9620000  20.4920000
  27.2660000 -21.7840000  20.6640000  27.5050000 -20.3220000  20.3530000
  26.9550000 -20.9850000  20.4960000  25.5300000 -30.4710000  29.4740000
  26.4110000 -30.1800000  29.7060000  25.6160000 -30.8050000  28.5810000
  25.6540000 -30.4760000  29.3890000  19.4240000 -24.0080000  36.8080000
  18.6620000 -23.4400000  36.6910000  19.6290000 -24.3180000  35.9260000
  19.3520000 -23.9750000  36.6800000  21.4950000 -22.7130000  38.1450000
  21.9780000 -22.1530000  37.5380000  21.0520000 -23.3490000  37.5840000
  21.5000000 -22.7220000  37.9960000  25.1210000 -20.9770000  36.9430000
  25.6950000 -21.0640000  37.7040000  25.0790000 -20.0350000  36.7820000
  25.1890000 -20.8680000  37.0190000  34.9560000 -26.6440000  29.7800000
  35.3960000 -26.1370000  30.4630000  34.2840000 -27.1410000  30.2460000
  34.9270000 -26.6430000  29.9270000  25.4760000 -27.1230000  36.8440000
  25.3190000 -28.0670000  36.8080000  25.3870000 -26.8310000  35.9370000
  25.4440000 -27.2070000  36.7230000  29.6830000 -23.8150000  20.9460000
  29.9870000 -24.7080000  21.1020000  30.2100000 -23.2750000  21.5350000
  29.7890000 -23.8600000  21.0410000  32.7930000 -28.1420000  30.7000000
  31.9180000 -28.3990000  30.4100000  33.1450000 -28.9250000  31.1240000
  32.7260000 -28.2750000  30.7170000  22.5010000 -21.2260000  35.8580000
  22.2500000 -20.3220000  36.0490000  23.4070000 -21.2910000  36.1610000
  22.5860000 -21.1180000  35.9210000  20.2130000 -19.4200000  23.6820000
  19.4320000 -19.5520000  23.1440000  20.1830000 -18.4950000  23.9260000
  20.1090000 -19.3180000  23.6440000  30.2640000 -23.6180000  35.6330000
  30.8460000 -23.7820000  36.3740000  29.6700000 -22.9320000  35.9410000
  30.2620000 -23.5510000  35.7670000  26.5660000 -23.1550000  28.3720000
  26.0860000 -23.9620000  28.5490000  27.2950000 -23.1680000  28.9910000
  26.5980000 -23.2600000  28.4740000  26.1090000 -30.6530000  32.7600000
  25.2640000 -30.9730000  33.0760000  26.5820000 -31.4440000  32.5000000
  26.0610000 -30.7950000  32.7670000  23.0360000 -25.4670000  37.0930000
  23.8470000 -25.9550000  36.9510000  22.7670000 -25.1900000  36.2170000
  23.1050000 -25.4940000  36.9620000  21.9440000 -20.8950000  22.2160000
  21.3620000 -20.3970000  22.7890000  22.1730000 -20.2840000  21.5160000
  21.8990000 -20.7530000  22.2000000  25.2980000 -26.4280000  34.1210000
  26.1780000 -26.8000000  34.0690000  24.7600000 -27.0080000  33.5840000
  25.3420000 -26.5490000  34.0460000  34.2870000 -22.7160000  32.4780000
  33.9360000 -22.8190000  33.3630000  34.4350000 -21.7740000  32.3880000
  34.2610000 -22.6090000  32.5800000  31.7420000 -28.1700000  33.7700000
  31.1850000 -28.5650000  33.0980000  31.1660000 -27.5600000  34.2300000
  31.5970000 -28.1420000  33.7430000  35.6560000 -28.9090000  36.9640000
  34.8330000 -28.5690000  36.6150000  35.5120000 -28.9650000  37.9090000
  35.5330000 -28.8730000  37.0410000  22.5810000 -28.5920000  31.3960000
  22.2040000 -28.7190000  32.2660000  22.0180000 -29.1030000  30.8140000
  22.4610000 -28.6730000  31.4330000  31.5880000 -27.0820000  26.8510000
  32.1330000 -26.5810000  27.4580000  30.8940000 -26.4750000  26.5940000
  31.5690000 -26.9410000  26.8960000  19.5710000 -25.5160000  27.6720000
  19.9650000 -25.5860000  26.8020000  20.1830000 -25.9710000  28.2490000
  19.7000000 -25.5830000  27.6340000  34.2920000 -29.8360000  23.0440000
  34.2490000 -29.2170000  23.7740000  33.9260000 -30.6470000  23.3960000
  34.2400000 -29.8600000  23.1830000  29.0420000 -28.9720000  23.5230000
  28.3700000 -29.6530000  23.5530000  29.1210000 -28.7550000  22.5940000
  28.9660000 -29.0310000  23.4080000  30.2280000 -19.9930000  32.6410000
  29.6790000 -20.0620000  31.8610000  30.5920000 -20.8700000  32.7570000
  30.2050000 -20.1140000  32.5560000  24.6620000 -29.9980000  36.5920000
  24.5470000 -30.2820000  35.6850000  23.7710000 -29.8950000  36.9250000
  24.5330000 -30.0210000  36.5180000  25.0920000 -25.4800000  29.4700000
  25.0520000 -26.4350000  29.4330000  24.6370000 -25.2510000  30.2800000
  25.0290000 -25.5720000  29.5690000  33.0570000 -28.8260000  36.1520000
  32.3660000 -29.4660000  36.3200000  32.8490000 -28.4700000  35.2890000
  32.9420000 -28.8630000  36.0630000  18.6750000 -29.7240000  23.2890000
  19.3400000 -29.1240000  23.6270000  17.8430000 -29.2900000  23.4780000
  18.6540000 -29.5920000  23.3570000  21.0080000 -25.2800000  25.4910000
  21.6870000 -25.5590000  26.1050000  21.1060000 -24.3300000  25.4420000
  21.1070000 -25.1930000  25.5640000  26.4220000 -26.5430000  20.5780000
  26.0390000 -26.8530000  19.7570000  26.6610000 -25.6320000  20.4030000
  26.4040000 -26.4660000  20.4510000  28.9350000 -22.8680000  29.8800000
  28.8710000 -23.3880000  30.6820000  29.4800000 -22.1190000  30.1230000
  28.9960000 -22.8390000  30.0140000  34.4340000 -23.9720000  26.4990000
  33.5190000 -23.9620000  26.2160000  34.5560000 -24.8400000  26.8840000
  34.3320000 -24.0820000  26.5120000  24.0560000 -27.6550000  23.5830000
  24.8790000 -27.1690000  23.5450000  24.1070000 -28.1500000  24.4000000
  24.1680000 -27.6560000  23.6820000  20.7470000 -19.7800000  27.6590000
  20.2050000 -19.3570000  28.3260000  21.6460000 -19.5830000  27.9210000
  20.7920000 -19.7000000  27.7780000  26.3510000 -26.0180000  23.5850000
  25.8280000 -25.3150000  23.9710000  26.3630000 -25.8220000  22.6490000
  26.2860000 -25.9030000  23.5150000  33.3940000 -31.1510000  19.7490000
  33.8720000 -31.5050000  19.0000000  33.8960000 -30.3800000  20.0120000
  33.5190000 -31.0970000  19.6870000  22.2880000 -25.7150000  34.5790000
  22.2500000 -25.3980000  33.6780000  21.4160000 -26.0740000  34.7440000
  22.1710000 -25.7210000  34.4860000  26.1960000 -23.9750000  33.1540000
  25.4130000 -23.5690000  32.7850000  25.9080000 -24.8460000  33.4280000
  26.0590000 -24.0350000  33.1420000  19.9340000 -21.9630000  29.8970000
  20.5890000 -21.6020000  29.3000000  19.2560000 -22.3180000  29.3220000
  19.9310000 -21.9620000  29.7470000  25.2220000 -28.0180000  31.6330000
  25.5470000 -28.8210000  32.0400000  24.3530000 -28.2500000  31.3070000
  25.1520000 -28.1500000  31.6430000  20.8380000 -27.0850000  37.6020000
  21.6410000 -26.5740000  37.4920000  20.3880000 -26.6660000  38.3370000
  20.8830000 -26.9650000  37.6820000  31.3340000 -29.9360000  26.8620000
  31.8320000 -30.1430000  26.0710000  31.5180000 -29.0110000  27.0260000
  31.4210000 -29.8440000  26.7820000  19.9230000 -26.1530000  21.0610000
  20.6900000 -26.4760000  21.5360000  19.1810000 -26.3920000  21.6160000
  19.9260000 -26.2250000  21.1930000  28.6550000 -29.3400000  27.4850000
  28.2480000 -28.5800000  27.0690000  29.5170000 -29.4050000  27.0750000
  28.7130000 -29.2510000  27.3800000  33.1920000 -28.1010000  24.9670000
  33.8660000 -27.6900000  25.5070000  32.3820000 -27.6550000  25.2130000
  33.1750000 -27.9910000  25.0670000  21.3460000 -27.6100000  28.4700000
  22.3030000 -27.6260000  28.4510000  21.1010000 -28.4240000  28.9100000
  21.4370000 -27.7160000  28.5240000  28.7230000 -24.2470000  32.3180000
  29.1160000 -23.4260000  32.6140000  27.8100000 -24.1920000  32.6000000
  28.6570000 -24.1350000  32.3920000  33.9470000 -30.9640000  31.4670000
  33.6820000 -31.6150000  32.1170000  34.1660000 -31.4760000  30.6890000
  33.9410000 -31.1120000  31.4510000  24.6930000 -29.1700000  25.6920000
  24.8810000 -29.9220000  25.1300000  25.5490000 -28.7800000  25.8620000
  24.8260000 -29.2160000  25.6420000  27.1430000 -23.9630000  19.9750000
  27.9870000 -24.0010000  20.4260000  27.3660000 -23.7580000  19.0670000
  27.2800000 -23.9420000  19.9170000  24.1940000 -28.1730000  28.2440000
  24.4510000 -28.5910000  27.4220000  24.2780000 -28.8650000  28.9000000
  24.2380000 -28.3150000  28.2230000  31.5060000 -23.7180000  28.7030000
  31.6040000 -23.4710000  27.7830000  30.6520000 -23.3680000  28.9550000
  31.4090000 -23.6420000  28.6180000  28.8960000 -19.3040000  26.0420000
  28.7110000 -20.1310000  25.5960000  28.5840000 -18.6310000  25.4370000
  28.8320000 -19.3240000  25.9070000  30.4840000 -20.0690000  19.1320000
  30.6420000 -19.2300000  18.6990000  30.7460000 -19.9220000  20.0410000
  30.5380000 -19.9430000  19.1930000  32.5940000 -21.2920000  29.2420000
  32.0500000 -20.6920000  28.7310000  32.2030000 -22.1530000  29.0960000
  32.4750000 -21.3250000  29.1580000  26.6860000 -18.9240000  28.2150000
  26.6520000 -19.6110000  28.8800000  27.1620000 -19.3190000  27.4850000
  26.7420000 -19.0620000  28.2070000  28.5650000 -28.1960000  20.9030000
  29.2950000 -27.5760000  20.8920000  27.7830000 -27.6450000  20.8720000
  28.5580000 -28.0460000  20.8970000  28.1970000 -30.8150000  30.0190000
  27.7480000 -31.5690000  30.4010000  28.9190000 -31.1950000  29.5190000
  28.2320000 -30.9600000  30.0050000  29.7320000 -26.6910000  31.7310000
  29.4560000 -25.8670000  32.1330000  30.6830000 -26.7050000  31.8400000
  29.8190000 -26.5870000  31.7960000  29.0880000 -19.4680000  29.9800000
  29.8780000 -18.9300000  29.9260000  28.4880000 -19.0760000  29.3460000
  29.1120000 -19.3490000  29.8920000  21.1180000 -28.8430000  33.8680000
  20.4390000 -28.2050000  34.0880000  20.7090000 -29.6920000  34.0320000
  20.9780000 -28.8700000  33.9170000  32.0780000 -20.8380000  24.8320000
  31.7100000 -20.2570000  25.4970000  32.9690000 -20.5150000  24.6980000
  32.1450000 -20.7220000  24.9000000  30.1830000 -28.4010000  29.8170000
  29.9150000 -27.7580000  30.4740000  29.3840000 -28.5830000  29.3210000
  30.0460000 -28.3420000  29.8370000  18.7250000 -30.7630000  36.4370000
  18.1250000 -30.0300000  36.5780000  19.2720000 -30.7800000  37.2230000
  18.7180000 -30.6710000  36.5570000  30.1600000 -30.0670000  32.3800000
  29.9970000 -29.7580000  31.4880000  29.2990000 -30.3310000  32.7020000
  30.0290000 -30.0610000  32.3070000  22.9570000 -25.1470000  20.8090000
  23.0430000 -25.1980000  19.8570000  22.4040000 -24.3790000  20.9580000
  22.8970000 -25.0550000  20.7060000  30.0920000 -26.4050000  34.9160000
  29.2740000 -26.5600000  34.4440000  30.1400000 -25.4520000  35.0050000
  29.9940000 -26.3030000  34.8670000  20.4710000 -29.9260000  29.6680000
  19.6920000 -29.4200000  29.8990000  20.2090000 -30.8390000  29.7910000
  20.3380000 -29.9780000  29.7130000  23.5670000 -25.7690000  26.7740000
  23.4800000 -24.9890000  27.3230000  23.6390000 -26.4930000  27.3970000
  23.5650000 -25.7620000  26.9240000  23.6690000 -30.6280000  33.9580000
  23.5780000 -30.7480000  33.0130000  22.9450000 -30.0500000  34.1960000
  23.5650000 -30.5690000  33.8670000  35.8360000 -21.6530000  25.1500000
  35.9060000 -22.2820000  25.8670000  35.9020000 -22.1850000  24.3570000
  35.8530000 -21.8010000  25.1400000  25.2940000 -31.0660000  23.2960000
  25.6670000 -31.1310000  22.4170000  24.3890000 -31.3620000  23.1950000
  25.2260000 -31.1130000  23.1710000  24.9930000 -23.9090000  21.7300000
  24.2610000 -24.3980000  21.3540000  25.6530000 -23.8960000  21.0380000
  24.9830000 -23.9700000  21.5940000  19.9390000 -20.5640000  32.3010000
  19.6460000 -20.8370000  31.4310000  19.6310000 -19.6620000  32.3850000
  19.8620000 -20.4840000  32.2000000  28.4840000 -30.4980000  18.9200000
  28.4650000 -29.8480000  19.6220000  28.8390000 -31.2860000  19.3320000
  28.5270000 -30.5150000  19.0620000  23.8540000 -23.2000000  31.6990000
  23.2840000 -22.5130000  32.0460000  23.4020000 -24.0160000  31.9130000
  23.7230000 -23.2160000  31.7710000  30.4460000 -21.6190000  22.7900000
  29.7610000 -21.6910000  23.4550000  31.2440000 -21.4410000  23.2870000
  30.4600000 -21.6060000  22.9390000  31.4550000 -22.6470000  19.0370000
  31.0550000 -21.7800000  19.0870000  30.9790000 -23.1680000  19.6840000
  31.3430000 -22.6020000  19.1260000  24.8340000 -24.3260000  24.8930000
  24.1980000 -24.7810000  25.4440000  24.3460000 -23.5920000  24.5200000
  24.6910000 -24.2900000  24.9160000  30.7120000 -22.6550000  33.0980000
  30.5090000 -22.9650000  33.9800000  31.2260000 -23.3630000  32.7080000
  30.7520000 -22.7860000  33.1610000  33.3570000 -25.0530000  35.7450000
  32.7170000 -25.5860000  36.2170000  33.3190000 -25.3760000  34.8440000
  33.2700000 -25.1630000  35.6900000  27.1240000 -22.6850000  35.8800000
  26.7370000 -23.0500000  35.0840000  26.4760000 -22.0560000  36.1950000
  26.9910000 -22.6530000  35.8190000  19.4840000 -23.3310000  33.2490000
  19.1020000 -22.4880000  33.4930000  20.3080000 -23.1050000  32.8180000
  19.5400000 -23.1940000  33.2250000  35.0920000 -25.1940000  23.9940000
  35.1140000 -25.0780000  24.9440000  35.2650000 -24.3210000  23.6430000
  35.1170000 -25.0670000  24.0710000  34.4670000 -19.2540000  24.3010000
  34.2030000 -19.2900000  23.3820000  35.0890000 -19.9750000  24.4000000
  34.5130000 -19.3510000  24.1960000  31.6410000 -19.2580000  21.8120000
  31.1250000 -19.9430000  22.2380000  31.1580000 -18.4510000  21.9860000
  31.5130000 -19.2430000  21.8890000  20.1320000 -31.3470000  34.1960000
  19.5660000 -30.9860000  33.5140000  19.6360000 -31.2310000  35.0070000
  19.9960000 -31.2860000  34.2120000  31.3780000 -17.7150000  30.1130000
  32.1530000 -17.8710000  29.5740000  31.3470000 -16.7640000  30.2190000
  31.4730000 -17.6130000  30.0580000  27.9480000 -21.3030000  24.3420000
  27.7100000 -22.1160000  24.7860000  27.1430000 -21.0250000  23.9050000
  27.8150000 -21.3710000  24.3430000  33.1410000 -21.8830000  35.6490000
  33.4110000 -22.7870000  35.8090000  32.1890000 -21.8960000  35.7500000
  33.0530000 -22.0000000  35.6830000  33.4510000 -26.1780000  33.3460000
  32.8410000 -26.9130000  33.4020000  33.0190000 -25.5530000  32.7630000
  33.3180000 -26.1920000  33.2790000  22.5490000 -25.5890000  31.7710000
  22.0880000 -25.2450000  31.0060000  22.6300000 -26.5280000  31.5990000
  22.5000000 -25.6650000  31.6510000  20.7450000 -27.9480000  23.9560000
  21.7010000 -27.9160000  23.9830000  20.4740000 -27.0310000  23.9940000
  20.8330000 -27.8270000  23.9640000  31.4130000 -30.3970000  24.3110000
  32.0330000 -29.9530000  23.7320000  30.6030000 -29.8930000  24.2260000
  31.3890000 -30.2750000  24.2260000  18.0330000 -24.3450000  20.2720000
  18.6610000 -24.8680000  20.7710000  18.5270000 -24.0400000  19.5110000
  18.1770000 -24.3730000  20.2390000  23.7050000 -22.2610000  23.5430000
  23.0050000 -21.8630000  23.0260000  24.1370000 -22.8640000  22.9370000
  23.6710000 -22.2870000  23.3990000  32.3060000 -24.3180000  31.3650000
  32.1330000 -24.3950000  30.4270000  33.0890000 -23.7710000  31.4200000
  32.3840000 -24.2580000  31.2520000  27.1240000 -27.9350000  25.6840000
  27.6380000 -28.5340000  25.1440000  26.8500000 -27.2440000  25.0800000
  27.1540000 -27.9230000  25.5380000  34.1520000 -19.3670000  34.9750000
  34.5610000 -19.1950000  35.8230000  33.8830000 -20.2840000  35.0200000
  34.1700000 -19.4620000  35.0890000  19.6110000 -20.5800000  19.7300000
  20.1680000 -21.3380000  19.9020000  20.1790000 -19.8250000  19.8860000
  19.7550000 -20.5800000  19.7720000  31.5600000 -26.5930000  37.0370000
  30.7490000 -26.5550000  36.5300000  31.9240000 -27.4560000  36.8420000
  31.5030000 -26.6980000  36.9470000  18.5050000 -27.9600000  26.1720000
  19.1020000 -27.7050000  25.4680000  18.8080000 -27.4650000  26.9340000
  18.6200000 -27.8650000  26.1790000  21.1860000 -24.4530000  29.9770000
  21.4450000 -23.7600000  29.3690000  20.3140000 -24.1940000  30.2760000
  21.1080000 -24.3310000  29.9370000  34.8740000 -26.8630000  26.9580000
  35.7270000 -27.2050000  26.6880000  34.8960000 -26.8920000  27.9140000
  34.9860000 -26.9110000  27.0450000  27.8040000 -29.9520000  34.8630000
  27.0500000 -30.2820000  34.3740000  27.6030000 -30.1500000  35.7770000
  27.6820000 -30.0200000  34.9170000  31.3540000 -30.6300000  36.9320000
  30.5700000 -30.6680000  37.4800000  31.9910000 -31.1800000  37.3860000
  31.3350000 -30.7050000  37.0600000  33.0200000 -26.1920000  22.1730000
  33.4160000 -25.8510000  22.9750000  33.5110000 -25.7730000  21.4660000
  33.1330000 -26.0950000  22.1850000  33.2140000 -19.8360000  31.6100000
  32.7410000 -19.0030000  31.6030000  32.6830000 -20.4170000  31.0660000
  33.0850000 -19.8040000  31.5400000  22.7250000 -20.9800000  13.8540000
  21.7710000 -21.0470000  13.8220000  22.9140000 -20.6720000  14.7400000
  22.6260000 -20.9480000  13.9630000  27.4900000 -23.5350000   7.0170000
  27.3160000 -23.3740000   7.9450000  26.7250000 -24.0210000   6.7110000
  27.3700000 -23.5770000   7.0970000  24.0610000 -28.6380000   2.3480000
  23.9070000 -28.1810000   3.1750000  24.7730000 -29.2480000   2.5400000
  24.1320000 -28.6580000   2.4780000  34.2220000 -22.4800000   0.5340000
  33.3600000 -22.1510000   0.2780000  34.1260000 -23.4310000   0.5330000
  34.0990000 -22.5590000   0.5010000  20.9480000 -22.3820000   7.3110000
  20.9860000 -21.4890000   6.9670000  20.1490000 -22.4030000   7.8370000
  20.8510000 -22.2700000   7.3340000  25.6590000 -20.5920000   4.0000000
  24.8600000 -21.1190000   4.0100000  26.0030000 -20.6950000   3.1130000
  25.6010000 -20.6730000   3.8880000  29.5670000 -25.6070000   6.4670000
  29.1410000 -26.2140000   5.8630000  28.9040000 -24.9400000   6.6450000
  29.4280000 -25.5990000   6.4130000  27.7690000 -27.3680000  14.9930000
  27.6410000 -28.2340000  15.3820000  28.2120000 -27.5430000  14.1620000
  27.8090000 -27.5010000  14.9360000  30.6450000 -26.4160000   2.0120000
  31.4150000 -26.3950000   2.5790000  30.9640000 -26.7840000   1.1880000
  30.7840000 -26.4600000   1.9790000  34.3630000 -25.1790000   0.7590000
  34.4050000 -25.3130000  -0.1880000  35.2490000 -24.9120000   1.0020000
  34.4820000 -25.1620000   0.6690000  19.7660000 -26.7010000  16.1430000
  18.8450000 -26.9210000  16.0030000  19.8460000 -26.5940000  17.0900000
  19.6580000 -26.7160000  16.2460000  31.3560000 -23.0120000   7.3480000
  31.5320000 -22.1620000   6.9450000  30.5970000 -23.3490000   6.8740000
  31.2820000 -22.9460000   7.2360000  31.1460000 -19.6870000   8.6000000
  31.7320000 -18.9500000   8.4250000  30.3640000 -19.5010000   8.0810000
  31.1210000 -19.5690000   8.5110000  29.9350000 -31.5470000  16.1370000
  30.5210000 -31.2340000  16.8260000  29.2090000 -30.9220000  16.1370000
  29.9170000 -31.4280000  16.2250000  27.5550000 -31.0460000   5.6690000
  26.7300000 -31.0650000   5.1840000  27.3040000 -31.2320000   6.5740000
  27.4170000 -31.0720000   5.7230000  24.6690000 -21.3810000  10.2860000
  24.4080000 -21.7560000  11.1270000  25.4000000 -21.9260000   9.9970000
  24.7290000 -21.4990000  10.3560000  22.9070000 -23.1880000   9.0010000
  22.1830000 -22.8850000   8.4530000  23.5010000 -22.4380000   9.0490000
  22.8910000 -23.0530000   8.9370000  22.3800000 -29.4240000   0.3390000
  21.7770000 -28.6870000   0.2430000  23.0090000 -29.1350000   1.0000000
  22.3830000 -29.2930000   0.4110000  26.8070000 -20.9620000   1.6320000
  27.2660000 -21.7840000   1.8040000  27.5050000 -20.3220000   1.4930000
  26.9550000 -20.9850000   1.6360000  25.5300000 -30.4710000  10.6140000
  26.4110000 -30.1800000  10.8460000  25.6160000 -30.8050000   9.7210000
  25.6540000 -30.4760000  10.5290000  19.4240000 -24.0080000  17.9480000
  18.6620000 -23.4400000  17.8310000  19.6290000 -24.3180000  17.0660000
  19.3520000 -23.9750000  17.8200000  21.4950000 -22.7130000  19.2850000
  21.9780000 -22.1530000  18.6780000  21.0520000 -23.3490000  18.7240000
  21.5000000 -22.7220000  19.1360000  25.1210000 -20.9770000  18.0830000
  25.6950000 -21.0640000  18.8440000  25.0790000 -20.0350000  17.9210000
  25.1890000 -20.8680000  18.1590000  34.9560000 -26.6440000  10.9200000
  35.3960000 -26.1370000  11.6030000  34.2840000 -27.1410000  11.3860000
  34.9270000 -26.6430000  11.0670000  25.4760000 -27.1230000  17.9840000
  25.3190000 -28.0670000  17.9480000  25.3870000 -26.8310000  17.0770000
  25.4440000 -27.2070000  17.8630000  29.6830000 -23.8150000   2.0860000
  29.9870000 -24.7080000   2.2420000  30.2100000 -23.2750000   2.6750000
  29.7890000 -23.8600000   2.1810000  32.7930000 -28.1420000  11.8400000
  31.9180000 -28.3990000  11.5500000  33.1450000 -28.9250000  12.2640000
  32.7260000 -28.2750000  11.8570000  22.5010000 -21.2260000  16.9980000
  22.2500000 -20.3220000  17.1890000  23.4070000 -21.2910000  17.3010000
  22.5860000 -21.1180000  17.0610000  20.2130000 -19.4200000   4.8220000
  19.4320000 -19.5520000   4.2840000  20.1830000 -18.4950000   5.0660000
  20.1090000 -19.3180000   4.7840000  30.2640000 -23.6180000  16.7730000
  30.8460000 -23.7820000  17.5140000  29.6700000 -22.9320000  17.0810000
  30.2620000 -23.5510000  16.9070000  26.5660000 -23.1550000   9.5120000
  26.0860000 -23.9620000   9.6890000  27.2950000 -23.1680000  10.1310000
  26.5980000 -23.2600000   9.6140000  26.1090000 -30.6530000  13.8990000
  25.2640000 -30.9730000  14.2160000  26.5820000 -31.4440000  13.6400000
  26.0610000 -30.7950000  13.9070000  23.0360000 -25.4670000  18.2330000
  23.8470000 -25.9550000  18.0910000  22.7670000 -25.1900000  17.3570000
  23.1050000 -25.4940000  18.1020000  21.9440000 -20.8950000   3.3560000
  21.3620000 -20.3970000   3.9290000  22.1730000 -20.2840000   2.6560000
  21.8990000 -20.7530000   3.3400000  25.2980000 -26.4280000  15.2610000
  26.1780000 -26.8000000  15.2090000  24.7600000 -27.0080000  14.7240000
  25.3420000 -26.5490000  15.1860000  34.2870000 -22.7160000  13.6180000
  33.9360000 -22.8190000  14.5030000  34.4350000 -21.7740000  13.5280000
  34.2610000 -22.6090000  13.7200000  31.7420000 -28.1700000  14.9100000
  31.1850000 -28.5650000  14.2380000  31.1660000 -27.5600000  15.3700000
  31.5970000 -28.1420000  14.8830000  35.6560000 -28.9090000  18.1040000
  34.8330000 -28.5690000  17.7550000  35.5120000 -28.9650000  19.0490000
  35.5330000 -28.8730000  18.1800000  22.5810000 -28.5920000  12.5360000
  22.2040000 -28.7190000  13.4060000  22.0180000 -29.1030000  11.9540000
  22.4610000 -28.6730000  12.5730000  31.5880000 -27.0820000   7.9910000
  32.1330000 -26.5810000   8.5980000  30.8940000 -26.4750000   7.7340000
  31.5690000 -26.9410000   8.0360000  19.5710000 -25.5160000   8.8120000
  19.9650000 -25.5860000   7.9420000  20.1830000 -25.9710000   9.3890000
  19.7000000 -25.5830000   8.7740000  34.2920000 -29.8360000   4.1840000
  34.2490000 -29.2170000   4.9140000  33.9260000 -30.6470000   4.5360000
  34.2400000 -29.8600000   4.3230000  29.0420000 -28.9720000   4.6630000
  28.3700000 -29.6530000   4.6930000  29.1210000 -28.7550000   3.7340000
  28.9660000 -29.0310000   4.5480000  30.2280000 -19.9930000  13.7810000
  29.6790000 -20.0620000  13.0010000  30.5920000 -20.8700000  13.8970000
  30.2050000 -20.1140000  13.6960000  24.6620000 -29.9980000  17.7320000
  24.5470000 -30.2820000  16.8250000  23.7710000 -29.8950000  18.0650000
  24.5330000 -30.0210000  17.6590000  25.0920000 -25.4800000  10.6100000
  25.0520000 -26.4350000  10.5730000  24.6370000 -25.2510000  11.4200000
  25.0290000 -25.5720000  10.7090000  33.0570000 -28.8260000  17.2920000
  32.3660000 -29.4660000  17.4600000  32.8490000 -28.4700000  16.4290000
  32.9420000 -28.8630000  17.2030000  18.6750000 -29.7240000   4.4290000
  19.3400000 -29.1240000   4.7670000  17.8430000 -29.2900000   4.6180000
  18.6540000 -29.5920000   4.4970000  21.0080000 -25.2800000   6.6310000
  21.6870000 -25.5590000   7.2450000  21.1060000 -24.3300000   6.5820000
  21.1070000 -25.1930000   6.7040000  26.4220000 -26.5430000   1.7180000
  26.0390000 -26.8530000   0.8970000  26.6610000 -25.6320000   1.5430000
  26.4040000 -26.4660000   1.5910000  28.9350000 -22.8680000  11.0200000
  28.8710000 -23.3880000  11.8220000  29.4800000 -22.1190000  11.2630000
  28.9960000 -22.8390000  11.1540000  34.4340000 -23.9720000   7.6390000
  33.5190000 -23.9620000   7.3560000  34.5560000 -24.8400000   8.0240000
  34.3320000 -24.0820000   7.6520000  24.0560000 -27.6550000   4.7230000
  24.8790000 -27.1690000   4.6850000  24.1070000 -28.1500000   5.5400000
  24.1680000 -27.6560000   4.8220000  20.7470000 -19.7800000   8.7990000
  20.2050000 -19.3570000   9.4660000  21.6460000 -19.5830000   9.0610000
  20.7920000 -19.7000000   8.9180000  26.3510000 -26.0180000   4.7250000
  25.8280000 -25.3150000   5.1110000  26.3630000 -25.8220000   3.7890000
  26.2860000 -25.9030000   4.6550000  33.3940000 -31.1510000   0.8890000
  33.8720000 -31.5050000   0.1400000  33.8960000 -30.3800000   1.1520000
  33.5190000 -31.0970000   0.8270000  22.2880000 -25.7150000  15.7190000
  22.2500000 -25.3980000  14.8170000  21.4160000 -26.0740000  15.8840000
  22.1710000 -25.7210000  15.6250000  26.1960000 -23.9750000  14.2940000
  25.4130000 -23.5690000  13.9250000  25.9080000 -24.8460000  14.5670000
  26.0590000 -24.0350000  14.2820000  19.9340000 -21.9630000  11.0370000
  20.5890000 -21.6020000  10.4400000  19.2560000 -22.3180000  10.4620000
  19.9310000 -21.9620000  10.8870000  25.2220000 -28.0180000  12.7730000
  25.5470000 -28.8210000  13.1800000  24.3530000 -28.2500000  12.4470000
  25.1520000 -28.1500000  12.7830000  20.8380000 -27.0850000  18.7420000
  21.6410000 -26.5740000  18.6320000  20.3880000 -26.6660000  19.4760000
  20.8830000 -26.9650000  18.8220000  31.3340000 -29.9360000   8.0020000
  31.8320000 -30.1430000   7.2110000  31.5180000 -29.0110000   8.1660000
  31.4210000 -29.8440000   7.9220000  19.9230000 -26.1530000   2.2010000
  20.6900000 -26.4760000   2.6760000  19.1810000 -26.3920000   2.7560000
  19.9260000 -26.2250000   2.3330000  28.6550000 -29.3400000   8.6250000
  28.2480000 -28.5800000   8.2090000  29.5170000 -29.4050000   8.2150000
  28.7130000 -29.2510000   8.5190000  33.1920000 -28.1010000   6.1070000
  33.8660000 -27.6900000   6.6470000  32.3820000 -27.6550000   6.3530000
  33.1750000 -27.9910000   6.2070000  21.3460000 -27.6100000   9.6100000
  22.3030000 -27.6260000   9.5910000  21.1010000 -28.4240000  10.0500000
  21.4370000 -27.7160000   9.6640000  28.7230000 -24.2470000  13.4580000
  29.1160000 -23.4260000  13.7540000  27.8100000 -24.1920000  13.7400000
  28.6570000 -24.1350000  13.5320000  33.9470000 -30.9640000  12.6070000
  33.6820000 -31.6150000  13.2570000  34.1660000 -31.4760000  11.8290000
  33.9410000 -31.1120000  12.5910000  24.6930000 -29.1700000   6.8320000
  24.8810000 -29.9220000   6.2700000  25.5490000 -28.7800000   7.0020000
  24.8260000 -29.2160000   6.7820000  27.1430000 -23.9630000   1.1150000
  27.9870000 -24.0010000   1.5660000  27.3660000 -23.7580000   0.2070000
  27.2800000 -23.9420000   1.0570000  24.1940000 -28.1730000   9.3840000
  24.4510000 -28.5910000   8.5620000  24.2780000 -28.8650000  10.0400000
  24.2380000 -28.3150000   9.3630000  31.5060000 -23.7180000   9.8430000
  31.6040000 -23.4710000   8.9230000  30.6520000 -23.3680000  10.0950000
  31.4090000 -23.6420000   9.7580000  28.8960000 -19.3040000   7.1820000
  28.7110000 -20.1310000   6.7360000  28.5840000 -18.6310000   6.5770000
  28.8320000 -19.3240000   7.0470000  30.4840000 -20.0690000   0.2720000
  30.6420000 -19.2300000  -0.1610000  30.7460000 -19.9220000   1.1810000
  30.5380000 -19.9430000   0.3330000  32.5940000 -21.2920000  10.3820000
  32.0500000 -20.6920000   9.8710000  32.2030000 -22.1530000  10.2360000
  32.4750000 -21.3250000  10.2980000  26.6860000 -18.9240000   9.3550000
  26.6520000 -19.6110000  10.0200000  27.1620000 -19.3190000   8.6250000
  26.7420000 -19.0620000   9.3470000  28.5650000 -28.1960000   2.0430000
  29.2950000 -27.5760000   2.0320000  27.7830000 -27.6450000   2.0120000
  28.5580000 -28.0460000   2.0370000  28.1970000 -30.8150000  11.1590000
  27.7480000 -31.5690000  11.5410000  28.9190000 -31.1950000  10.6590000
  28.2320000 -30.9600000  11.1440000  29.7320000 -26.6910000  12.8710000
  29.4560000 -25.8670000  13.2730000  30.6830000 -26.7050000  12.9800000
  29.8190000 -26.5870000  12.9360000  29.0880000 -19.4680000  11.1200000
  29.8780000 -18.9300000  11.0660000  28.4880000 -19.0760000  10.4860000
  29.1120000 -19.3490000  11.0320000  21.1180000 -28.8430000  15.0080000
  20.4390000 -28.2050000  15.2280000  20.7090000 -29.6920000  15.1710000
  20.9780000 -28.8700000  15.0570000  32.0780000 -20.8380000   5.9720000
  31.7100000 -20.2570000   6.6370000  32.9690000 -20.5150000   5.8380000
  32.1450000 -20.7220000   6.0400000  30.1830000 -28.4010000  10.9570000
  29.9150000 -27.7580000  11.6140000  29.3840000 -28.5830000  10.4610000
  30.0460000 -28.3420000  10.9770000  18.7250000 -30.7630000  17.5770000
  18.1250000 -30.0300000  17.7180000  19.2720000 -30.7800000  18.3630000
  18.7180000 -30.6710000  17.6960000  30.1600000 -30.0670000  13.5190000
  29.9970000 -29.7580000  12.6280000  29.2990000 -30.3310000  13.8420000
  30.0290000 -30.0610000  13.4470000  22.9570000 -25.1470000   1.9490000
  23.0430000 -25.1980000   0.9970000  22.4040000 -24.3790000   2.0980000
  22.8970000 -25.0550000   1.8460000  30.0920000 -26.4050000  16.0550000
  29.2740000 -26.5600000  15.5840000  30.1400000 -25.4520000  16.1440000
  29.9940000 -26.3030000  16.0060000  20.4710000 -29.9260000  10.8080000
  19.6920000 -29.4200000  11.0390000  20.2090000 -30.8390000  10.9310000
  20.3380000 -29.9780000  10.8530000  23.5670000 -25.7690000   7.9140000
  23.4800000 -24.9890000   8.4630000  23.6390000 -26.4930000   8.5370000
  23.5650000 -25.7620000   8.0640000  23.6690000 -30.6280000  15.0980000
  23.5780000 -30.7480000  14.1530000  22.9450000 -30.0500000  15.3360000
  23.5650000 -30.5690000  15.0070000  35.8360000 -21.6530000   6.2900000
  35.9060000 -22.2820000   7.0070000  35.9020000 -22.1850000   5.4970000
  35.8530000 -21.8010000   6.2800000  25.2940000 -31.0660000   4.4360000
  25.6670000 -31.1310000   3.5570000  24.3890000 -31.3620000   4.3350000
  25.2260000 -31.1130000   4.3110000  24.9930000 -23.9090000   2.8700000
  24.2610000 -24.3980000   2.4940000  25.6530000 -23.8960000   2.1780000
  24.9830000 -23.9700000   2.7340000  19.9390000 -20.5640000  13.4410000
  19.6460000 -20.8370000  12.5710000  19.6310000 -19.6620000  13.5250000
  19.8620000 -20.4840000  13.3400000  28.4840000 -30.4980000   0.0600000
  28.4650000 -29.8480000   0.7620000  28.8390000 -31.2860000   0.4720000
  28.5270000 -30.5150000   0.2020000  23.8540000 -23.2000000  12.8390000
  23.2840000 -22.5130000  13.1860000  23.4020000 -24.0160000  13.0530000
  23.7230000 -23.2160000  12.9110000  30.4460000 -21.6190000   3.9300000
  29.7610000 -21.6910000   4.5950000  31.2440000 -21.4410000   4.4270000
  30.4600000 -21.6060000   4.0790000  31.4550000 -22.6470000   0.1770000
  31.0550000 -21.7800000   0.2270000  30.9790000 -23.1680000   0.8240000
  31.3430000 -22.6020000   0.2660000  24.8340000 -24.3260000   6.0330000
  24.1980000 -24.7810000   6.5840000  24.3460000 -23.5920000   5.6600000
  24.6910000 -24.2900000   6.0560000  30.7120000 -22.6550000  14.2380000
  30.5090000 -22.9650000  15.1200000  31.2260000 -23.3630000  13.8480000
  30.7520000 -22.7860000  14.3010000  33.3570000 -25.0530000  16.8850000
  32.7170000 -25.5860000  17.3570000  33.3190000 -25.3760000  15.9840000
  33.2700000 -25.1630000  16.8300000  27.1240000 -22.6850000  17.0200000
  26.7370000 -23.0500000  16.2240000  26.4760000 -22.0560000  17.3350000
  26.9910000 -22.6530000  16.9590000  19.4840000 -23.3310000  14.3890000
  19.1020000 -22.4880000  14.6330000  20.3080000 -23.1050000  13.9580000
  19.5400000 -23.1940000  14.3650000  35.0920000 -25.1940000   5.1340000
  35.1140000 -25.0780000   6.0840000  35.2650000 -24.3210000   4.7830000
  35.1170000 -25.0670000   5.2110000  34.4670000 -19.2540000   5.4410000
  34.2030000 -19.2900000   4.5220000  35.0890000 -19.9750000   5.5400000
  34.5130000 -19.3510000   5.3360000  31.6410000 -19.2580000   2.9520000
  31.1250000 -19.9430000   3.3780000  31.1580000 -18.4510000   3.1260000
  31.5130000 -19.2430000   3.0290000  20.1320000 -31.3470000  15.3360000
  19.5660000 -30.9860000  14.6540000  19.6360000 -31.2310000  16.1460000
  19.9960000 -31.2860000  15.3520000  31.3780000 -17.7150000  11.2530000
  32.1530000 -17.8710000  10.7140000  31.3470000 -16.7640000  11.3590000
  31.4730000 -17.6130000  11.1980000  27.9480000 -21.3030000   5.4820000
  27.7100000 -22.1160000   5.9260000  27.1430000 -21.0250000   5.0450000
  27.8150000 -21.3710000   5.4830000  33.1410000 -21.8830000  16.7890000
  33.4110000 -22.7870000  16.9490000  32.1890000 -21.8960000  16.8900000
  33.0530000 -22.0000000  16.8230000  33.4510000 -26.1780000  14.4860000
  32.8410000 -26.9130000  14.5420000  33.0190000 -25.5530000  13.9030000
  33.3180000 -26.1920000  14.4190000  22.5490000 -25.5890000  12.9110000
  22.0880000 -25.2450000  12.1460000  22.6300000 -26.5280000  12.7390000
  22.5000000 -25.6650000  12.7910000  20.7450000 -27.9480000   5.0960000
  21.7010000 -27.9160000   5.1230000  20.4740000 -27.0310000   5.1340000
  20.8330000 -27.8270000   5.1040000  31.4130000 -30.3970000   5.4510000
  32.0330000 -29.9530000   4.8720000  30.6030000 -29.8930000   5.3660000
  31.3890000 -30.2750000   5.3660000  18.0330000 -24.3450000   1.4120000
  18.6610000 -24.8680000   1.9110000  18.5270000 -24.0400000   0.6510000
  18.1770000 -24.3730000   1.3790000  23.7050000 -22.2610000   4.6830000
  23.0050000 -21.8630000   4.1660000  24.1370000 -22.8640000   4.0770000
  23.6710000 -22.2870000   4.5390000  32.3060000 -24.3180000  12.5050000
  32.1330000 -24.3950000  11.5670000  33.0890000 -23.7710000  12.5600000
  32.3840000 -24.2580000  12.3920000  27.1240000 -27.9350000   6.8240000
  27.6380000 -28.5340000   6.2840000  26.8500000 -27.2440000   6.2200000
  27.1540000 -27.9230000   6.6780000  34.1520000 -19.3670000  16.1150000
  34.5610000 -19.1950000  16.9630000  33.8830000 -20.2840000  16.1600000
  34.1700000 -19.4620000  16.2290000  19.6110000 -20.5800000   0.8700000
  20.1680000 -21.3380000   1.0420000  20.1790000 -19.8250000   1.0260000
  19.7550000 -20.5800000   0.9120000  31.5600000 -26.5930000  18.1770000
  30.7490000 -26.5550000  17.6700000  31.9240000 -27.4560000  17.9820000
  31.5030000 -26.6980000  18.0870000  18.5050000 -27.9600000   7.3120000
  19.1020000 -27.7050000   6.6080000  18.8080000 -27.4650000   8.0740000
  18.6200000 -27.8650000   7.3190000  21.1860000 -24.4530000  11.1170000
  21.4450000 -23.7600000  10.5090000  20.3140000 -24.1940000  11.4160000
  21.1080000 -24.3310000  11.0770000  34.8740000 -26.8630000   8.0980000
  35.7270000 -27.2050000   7.8280000  34.8960000 -26.8920000   9.0540000
  34.9860000 -26.9110000   8.1850000  27.8040000 -29.9520000  16.0030000
  27.0500000 -30.2820000  15.5140000  27.6030000 -30.1500000  16.9170000
  27.6820000 -30.0200000  16.0570000  31.3540000 -30.6300000  18.0720000
  30.5700000 -30.6680000  18.6200000  31.9910000 -31.1800000  18.5260000
  31.3350000 -30.7050000  18.2000000  33.0200000 -26.1920000   3.3130000
  33.4160000 -25.8510000   4.1150000  33.5110000 -25.7730000   2.6060000
  33.1330000 -26.0950000   3.3250000  33.2140000 -19.8360000  12.7500000
  32.7410000 -19.0030000  12.7430000  32.6830000 -20.4170000  12.2060000
  33.0850000 -19.8040000  12.6800000  22.7250000 -20.9800000  -5.0060000
  21.7710000 -21.0470000  -5.0380000  22.9140000 -20.6720000  -4.1200000
  22.6260000 -20.9480000  -4.8970000  27.4900000 -23.5350000 -11.8430000
  27.3160000 -23.3740000 -10.9150000  26.7250000 -24.0210000 -12.1490000
  27.3700000 -23.5770000 -11.7630000  24.0610000 -28.6380000 -16.5120000
  23.9070000 -28.1810000 -15.6850000  24.7730000 -29.2480000 -16.3200000
  24.1320000 -28.6580000 -16.3820000  34.2220000 -22.4800000 -18.3260000
  33.3600000 -22.1510000 -18.5820000  34.1260000 -23.4310000 -18.3270000
  34.0990000 -22.5590000 -18.3590000  20.9480000 -22.3820000 -11.5490000
  20.9860000 -21.4890000 -11.8930000  20.1490000 -22.4030000 -11.0230000
  20.8510000 -22.2700000 -11.5260000  25.6590000 -20.5920000 -14.8600000
  24.8600000 -21.1190000 -14.8500000  26.0030000 -20.6950000 -15.7470000
  25.6010000 -20.6730000 -14.9720000  29.5670000 -25.6070000 -12.3930000
  29.1410000 -26.2140000 -12.9970000  28.9040000 -24.9400000 -12.2150000
  29.4280000 -25.5990000 -12.4470000  27.7690000 -27.3680000  -3.8670000
  27.6410000 -28.2340000  -3.4780000  28.2120000 -27.5430000  -4.6980000
  27.8090000 -27.5010000  -3.9240000  30.6450000 -26.4160000 -16.8480000
  31.4150000 -26.3950000 -16.2810000  30.9640000 -26.7840000 -17.6720000
  30.7840000 -26.4600000 -16.8810000  34.3630000 -25.1790000 -18.1010000
  34.4050000 -25.3130000 -19.0480000  35.2490000 -24.9120000 -17.8580000
  34.4820000 -25.1620000 -18.1910000  19.7660000 -26.7010000  -2.7170000
  18.8450000 -26.9210000  -2.8570000  19.8460000 -26.5940000  -1.7700000
  19.6580000 -26.7160000  -2.6140000  31.3560000 -23.0120000 -11.5120000
  31.5320000 -22.1620000 -11.9150000  30.5970000 -23.3490000 -11.9860000
  31.2820000 -22.9460000 -11.6240000  31.1460000 -19.6870000 -10.2600000
  31.7320000 -18.9500000 -10.4350000  30.3640000 -19.5010000 -10.7790000
  31.1210000 -19.5690000 -10.3490000  29.9350000 -31.5470000  -2.7230000
  30.5210000 -31.2340000  -2.0340000  29.2090000 -30.9220000  -2.7230000
  29.9170000 -31.4280000  -2.6350000  27.5550000 -31.0460000 -13.1910000
  26.7300000 -31.0650000 -13.6760000  27.3040000 -31.2320000 -12.2860000
  27.4170000 -31.0720000 -13.1370000  24.6690000 -21.3810000  -8.5740000
  24.4080000 -21.7560000  -7.7330000  25.4000000 -21.9260000  -8.8630000
  24.7290000 -21.4990000  -8.5040000  22.9070000 -23.1880000  -9.8590000
  22.1830000 -22.8850000 -10.4070000  23.5010000 -22.4380000  -9.8110000
  22.8910000 -23.0530000  -9.9230000  22.3800000 -29.4240000 -18.5210000
  21.7770000 -28.6870000 -18.6170000  23.0090000 -29.1350000 -17.8600000
  22.3830000 -29.2930000 -18.4490000  26.8070000 -20.9620000 -17.2280000
  27.2660000 -21.7840000 -17.0560000  27.5050000 -20.3220000 -17.3670000
  26.9550000 -20.9850000 -17.2240000  25.5300000 -30.4710000  -8.2460000
  26.4110000 -30.1800000  -8.0140000  25.6160000 -30.8050000  -9.1390000
  25.6540000 -30.4760000  -8.3310000  19.4240000 -24.0080000  -0.9120000
  18.6620000 -23.4400000  -1.0290000  19.6290000 -24.3180000  -1.7940000
  19.3520000 -23.9750000  -1.0400000  21.4950000 -22.7130000   0.4250000
  21.9780000 -22.1530000  -0.1820000  21.0520000 -23.3490000  -0.1360000
  21.5000000 -22.7220000   0.2760000  25.1210000 -20.9770000  -0.7770000
  25.6950000 -21.0640000  -0.0160000  25.0790000 -20.0350000  -0.9390000
  25.1890000 -20.8680000  -0.7010000  34.9560000 -26.6440000  -7.9400000
  35.3960000 -26.1370000  -7.2570000  34.2840000 -27.1410000  -7.4740000
  34.9270000 -26.6430000  -7.7930000  25.4760000 -27.1230000  -0.8760000
  25.3190000 -28.0670000  -0.9120000  25.3870000 -26.8310000  -1.7830000
  25.4440000 -27.2070000  -0.9970000  29.6830000 -23.8150000 -16.7740000
  29.9870000 -24.7080000 -16.6180000  30.2100000 -23.2750000 -16.1850000
  29.7890000 -23.8600000 -16.6790000  32.7930000 -28.1420000  -7.0200000
  31.9180000 -28.3990000  -7.3100000  33.1450000 -28.9250000  -6.5960000
  32.7260000 -28.2750000  -7.0030000  22.5010000 -21.2260000  -1.8620000
  22.2500000 -20.3220000  -1.6710000  23.4070000 -21.2910000  -1.5590000
  22.5860000 -21.1180000  -1.7990000  20.2130000 -19.4200000 -14.0380000
  19.4320000 -19.5520000 -14.5760000  20.1830000 -18.4950000 -13.7940000
  20.1090000 -19.3180000 -14.0760000  30.2640000 -23.6180000  -2.0870000
  30.8460000 -23.7820000  -1.3460000  29.6700000 -22.9320000  -1.7790000
  30.2620000 -23.5510000  -1.9530000  26.5660000 -23.1550000  -9.3480000
  26.0860000 -23.9620000  -9.1710000  27.2950000 -23.1680000  -8.7290000
  26.5980000 -23.2600000  -9.2460000  26.1090000 -30.6530000  -4.9610000
  25.2640000 -30.9730000  -4.6440000  26.5820000 -31.4440000  -5.2200000
  26.0610000 -30.7950000  -4.9530000  23.0360000 -25.4670000  -0.6270000
  23.8470000 -25.9550000  -0.7690000  22.7670000 -25.1900000  -1.5030000
  23.1050000 -25.4940000  -0.7580000  21.9440000 -20.8950000 -15.5040000
  21.3620000 -20.3970000 -14.9310000  22.1730000 -20.2840000 -16.2040000
  21.8990000 -20.7530000 -15.5200000  25.2980000 -26.4280000  -3.5990000
  26.1780000 -26.8000000  -3.6510000  24.7600000 -27.0080000  -4.1360000
  25.3420000 -26.5490000  -3.6740000  34.2870000 -22.7160000  -5.2420000
  33.9360000 -22.8190000  -4.3570000  34.4350000 -21.7740000  -5.3320000
  34.2610000 -22.6090000  -5.1400000  31.7420000 -28.1700000  -3.9500000
  31.1850000 -28.5650000  -4.6220000  31.1660000 -27.5600000  -3.4900000
  31.5970000 -28.1420000  -3.9770000  35.6560000 -28.9090000  -0.7560000
  34.8330000 -28.5690000  -1.1050000  35.5120000 -28.9650000   0.1890000
  35.5330000 -28.8730000  -0.6800000  22.5810000 -28.5920000  -6.3240000
  22.2040000 -28.7190000  -5.4540000  22.0180000 -29.1030000  -6.9060000
  22.4610000 -28.6730000  -6.2870000  31.5880000 -27.0820000 -10.8690000
  32.1330000 -26.5810000 -10.2620000  30.8940000 -26.4750000 -11.1260000
  31.5690000 -26.9410000 -10.8240000  19.5710000 -25.5160000 -10.0480000
  19.9650000 -25.5860000 -10.9180000  20.1830000 -25.9710000  -9.4710000
  19.7000000 -25.5830000 -10.0860000  34.2920000 -29.8360000 -14.6760000
  34.2490000 -29.2170000 -13.9460000  33.9260000 -30.6470000 -14.3240000
  34.2400000 -29.8600000 -14.5370000  29.0420000 -28.9720000 -14.1970000
  28.3700000 -29.6530000 -14.1670000  29.1210000 -28.7550000 -15.1260000
  28.9660000 -29.0310000 -14.3120000  30.2280000 -19.9930000  -5.0790000
  29.6790000 -20.0620000  -5.8590000  30.5920000 -20.8700000  -4.9630000
  30.2050000 -20.1140000  -5.1640000  24.6620000 -29.9980000  -1.1280000
  24.5470000 -30.2820000  -2.0350000  23.7710000 -29.8950000  -0.7950000
  24.5330000 -30.0210000  -1.2020000  25.0920000 -25.4800000  -8.2500000
  25.0520000 -26.4350000  -8.2870000  24.6370000 -25.2510000  -7.4400000
  25.0290000 -25.5720000  -8.1510000  33.0570000 -28.8260000  -1.5680000
  32.3660000 -29.4660000  -1.4000000  32.8490000 -28.4700000  -2.4310000
  32.9420000 -28.8630000  -1.6570000  18.6750000 -29.7240000 -14.4310000
  19.3400000 -29.1240000 -14.0930000  17.8430000 -29.2900000 -14.2420000
  18.6540000 -29.5920000 -14.3630000  21.0080000 -25.2800000 -12.2290000
  21.6870000 -25.5590000 -11.6150000  21.1060000 -24.3300000 -12.2780000
  21.1070000 -25.1930000 -12.1560000  26.4220000 -26.5430000 -17.1420000
  26.0390000 -26.8530000 -17.9630000  26.6610000 -25.6320000 -17.3170000
  26.4040000 -26.4660000 -17.2690000  28.9350000 -22.8680000  -7.8400000
  28.8710000 -23.3880000  -7.0380000  29.4800000 -22.1190000  -7.5970000
  28.9960000 -22.8390000  -7.7060000  34.4340000 -23.9720000 -11.2210000
  33.5190000 -23.9620000 -11.5040000  34.5560000 -24.8400000 -10.8360000
  34.3320000 -24.0820000 -11.2080000  24.0560000 -27.6550000 -14.1370000
  24.8790000 -27.1690000 -14.1750000  24.1070000 -28.1500000 -13.3200000
  24.1680000 -27.6560000 -14.0380000  20.7470000 -19.7800000 -10.0610000
  20.2050000 -19.3570000  -9.3940000  21.6460000 -19.5830000  -9.7990000
  20.7920000 -19.7000000  -9.9420000  26.3510000 -26.0180000 -14.1350000
  25.8280000 -25.3150000 -13.7490000  26.3630000 -25.8220000 -15.0710000
  26.2860000 -25.9030000 -14.2050000  33.3940000 -31.1510000 -17.9710000
  33.8720000 -31.5050000 -18.7200000  33.8960000 -30.3800000 -17.7080000
  33.5190000 -31.0970000 -18.0330000  22.2880000 -25.7150000  -3.1410000
  22.2500000 -25.3980000  -4.0430000  21.4160000 -26.0740000  -2.9760000
  22.1710000 -25.7210000  -3.2350000  26.1960000 -23.9750000  -4.5660000
  25.4130000 -23.5690000  -4.9350000  25.9080000 -24.8460000  -4.2930000
  26.0590000 -24.0350000  -4.5780000  19.9340000 -21.9630000  -7.8230000
  20.5890000 -21.6020000  -8.4200000  19.2560000 -22.3180000  -8.3980000
  19.9310000 -21.9620000  -7.9730000  25.2220000 -28.0180000  -6.0870000
  25.5470000 -28.8210000  -5.6800000  24.3530000 -28.2500000  -6.4130000
  25.1520000 -28.1500000  -6.0770000  20.8380000 -27.0850000  -0.1180000
  21.6410000 -26.5740000  -0.2280000  20.3880000 -26.6660000   0.6160000
  20.8830000 -26.9650000  -0.0380000  31.3340000 -29.9360000 -10.8580000
  31.8320000 -30.1430000 -11.6490000  31.5180000 -29.0110000 -10.6940000
  31.4210000 -29.8440000 -10.9380000  19.9230000 -26.1530000 -16.6590000
  20.6900000 -26.4760000 -16.1840000  19.1810000 -26.3920000 -16.1040000
  19.9260000 -26.2250000 -16.5270000  28.6550000 -29.3400000 -10.2350000
  28.2480000 -28.5800000 -10.6510000  29.5170000 -29.4050000 -10.6450000
  28.7130000 -29.2510000 -10.3410000  33.1920000 -28.1010000 -12.7530000
  33.8660000 -27.6900000 -12.2130000  32.3820000 -27.6550000 -12.5070000
  33.1750000 -27.9910000 -12.6530000  21.3460000 -27.6100000  -9.2500000
  22.3030000 -27.6260000  -9.2690000  21.1010000 -28.4240000  -8.8100000
  21.4370000 -27.7160000  -9.1960000  28.7230000 -24.2470000  -5.4020000
  29.1160000 -23.4260000  -5.1060000  27.8100000 -24.1920000  -5.1200000
  28.6570000 -24.1350000  -5.3280000  33.9470000 -30.9640000  -6.2530000
  33.6820000 -31.6150000  -5.6030000  34.1660000 -31.4760000  -7.0310000
  33.9410000 -31.1120000  -6.2690000  24.6930000 -29.1700000 -12.0280000
  24.8810000 -29.9220000 -12.5900000  25.5490000 -28.7800000 -11.8580000
  24.8260000 -29.2160000 -12.0780000  27.1430000 -23.9630000 -17.7450000
  27.9870000 -24.0010000 -17.2940000  27.3660000 -23.7580000 -18.6530000
  27.2800000 -23.9420000 -17.8030000  24.1940000 -28.1730000  -9.4760000
  24.4510000 -28.5910000 -10.2980000  24.2780000 -28.8650000  -8.8200000
  24.2380000 -28.3150000  -9.4970000  31.5060000 -23.7180000  -9.0170000
  31.6040000 -23.4710000  -9.9370000  30.6520000 -23.3680000  -8.7650000
  31.4090000 -23.6420000  -9.1020000  28.8960000 -19.3040000 -11.6780000
  28.7110000 -20.1310000 -12.1240000  28.5840000 -18.6310000 -12.2830000
  28.8320000 -19.3240000 -11.8130000  30.4840000 -20.0690000 -18.5880000
  30.6420000 -19.2300000 -19.0210000  30.7460000 -19.9220000 -17.6790000
  30.5380000 -19.9430000 -18.5270000  32.5940000 -21.2920000  -8.4780000
  32.0500000 -20.6920000  -8.9890000  32.2030000 -22.1530000  -8.6240000
  32.4750000 -21.3250000  -8.5620000  26.6860000 -18.9240000  -9.5050000
  26.6520000 -19.6110000  -8.8400000  27.1620000 -19.3190000 -10.2350000
  26.7420000 -19.0620000  -9.5130000  28.5650000 -28.1960000 -16.8170000
  29.2950000 -27.5760000 -16.8280000  27.7830000 -27.6450000 -16.8480000
  28.5580000 -28.0460000 -16.8230000  28.1970000 -30.8150000  -7.7010000
  27.7480000 -31.5690000  -7.3190000  28.9190000 -31.1950000  -8.2010000
  28.2320000 -30.9600000  -7.7160000  29.7320000 -26.6910000  -5.9890000
  29.4560000 -25.8670000  -5.5870000  30.6830000 -26.7050000  -5.8800000
  29.8190000 -26.5870000  -5.9240000  29.0880000 -19.4680000  -7.7400000
  29.8780000 -18.9300000  -7.7940000  28.4880000 -19.0760000  -8.3740000
  29.1120000 -19.3490000  -7.8280000  21.1180000 -28.8430000  -3.8520000
  20.4390000 -28.2050000  -3.6320000  20.7090000 -29.6920000  -3.6890000
  20.9780000 -28.8700000  -3.8030000  32.0780000 -20.8380000 -12.8880000
  31.7100000 -20.2570000 -12.2230000  32.9690000 -20.5150000 -13.0220000
  32.1450000 -20.7220000 -12.8200000  30.1830000 -28.4010000  -7.9030000
  29.9150000 -27.7580000  -7.2460000  29.3840000 -28.5830000  -8.3990000
  30.0460000 -28.3420000  -7.8830000  18.7250000 -30.7630000  -1.2830000
  18.1250000 -30.0300000  -1.1420000  19.2720000 -30.7800000  -0.4970000
  18.7180000 -30.6710000  -1.1640000  30.1600000 -30.0670000  -5.3410000
  29.9970000 -29.7580000  -6.2320000  29.2990000 -30.3310000  -5.0180000
  30.0290000 -30.0610000  -5.4130000  22.9570000 -25.1470000 -16.9110000
  23.0430000 -25.1980000 -17.8630000  22.4040000 -24.3790000 -16.7620000
  22.8970000 -25.0550000 -17.0140000  30.0920000 -26.4050000  -2.8050000
  29.2740000 -26.5600000  -3.2760000  30.1400000 -25.4520000  -2.7160000
  29.9940000 -26.3030000  -2.8540000  20.4710000 -29.9260000  -8.0520000
  19.6920000 -29.4200000  -7.8210000  20.2090000 -30.8390000  -7.9290000
  20.3380000 -29.9780000  -8.0070000  23.5670000 -25.7690000 -10.9460000
  23.4800000 -24.9890000 -10.3970000  23.6390000 -26.4930000 -10.3230000
  23.5650000 -25.7620000 -10.7960000  23.6690000 -30.6280000  -3.7620000
  23.5780000 -30.7480000  -4.7070000  22.9450000 -30.0500000  -3.5240000
  23.5650000 -30.5690000  -3.8530000  35.8360000 -21.6530000 -12.5700000
  35.9060000 -22.2820000 -11.8530000  35.9020000 -22.1850000 -13.3630000
  35.8530000 -21.8010000 -12.5800000  25.2940000 -31.0660000 -14.4240000
  25.6670000 -31.1310000 -15.3030000  24.3890000 -31.3620000 -14.5250000
  25.2260000 -31.1130000 -14.5490000  24.9930000 -23.9090000 -15.9900000
  24.2610000 -24.3980000 -16.3660000  25.6530000 -23.8960000 -16.6820000
  24.9830000 -23.9700000 -16.1260000  19.9390000 -20.5640000  -5.4190000
  19.6460000 -20.8370000  -6.2890000  19.6310000 -19.6620000  -5.3350000
  19.8620000 -20.4840000  -5.5200000  28.4840000 -30.4980000 -18.8000000
  28.4650000 -29.8480000 -18.0980000  28.8390000 -31.2860000 -18.3880000
  28.5270000 -30.5150000 -18.6580000  23.8540000 -23.2000000  -6.0210000
  23.2840000 -22.5130000  -5.6740000  23.4020000 -24.0160000  -5.8070000
  23.7230000 -23.2160000  -5.9490000  30.4460000 -21.6190000 -14.9300000
  29.7610000 -21.6910000 -14.2650000  31.2440000 -21.4410000 -14.4330000
  30.4600000 -21.6060000 -14.7810000  31.4550000 -22.6470000 -18.6830000
  31.0550000 -21.7800000 -18.6330000  30.9790000 -23.1680000 -18.0360000
  31.3430000 -22.6020000 -18.5940000  24.8340000 -24.3260000 -12.8270000
  24.1980000 -24.7810000 -12.2760000  24.3460000 -23.5920000 -13.2000000
  24.6910000 -24.2900000 -12.8040000  30.7120000 -22.6550000  -4.6220000
  30.5090000 -22.9650000  -3.7400000  31.2260000 -23.3630000  -5.0120000
  30.7520000 -22.7860000  -4.5590000  33.3570000 -25.0530000  -1.9750000
  32.7170000 -25.5860000  -1.5030000  33.3190000 -25.3760000  -2.8760000
  33.2700000 -25.1630000  -2.0300000  27.1240000 -22.6850000  -1.8400000
  26.7370000 -23.0500000  -2.6360000  26.4760000 -22.0560000  -1.5250000
  26.9910000 -22.6530000  -1.9010000  19.4840000 -23.3310000  -4.4710000
  19.1020000 -22.4880000  -4.2270000  20.3080000 -23.1050000  -4.9020000
  19.5400000 -23.1940000  -4.4950000  35.0920000 -25.1940000 -13.7260000
  35.1140000 -25.0780000 -12.7760000  35.2650000 -24.3210000 -14.0770000
  35.1170000 -25.0670000 -13.6490000  34.4670000 -19.2540000 -13.4190000
  34.2030000 -19.2900000 -14.3380000  35.0890000 -19.9750000 -13.3200000
  34.5130000 -19.3510000 -13.5240000  31.6410000 -19.2580000 -15.9080000
  31.1250000 -19.9430000 -15.4820000  31.1580000 -18.4510000 -15.7340000
  31.5130000 -19.2430000 -15.8310000  20.1320000 -31.3470000  -3.5240000
  19.5660000 -30.9860000  -4.2060000  19.6360000 -31.2310000  -2.7140000
  19.9960000 -31.2860000  -3.5080000  31.3780000 -17.7150000  -7.6070000
  32.1530000 -17.8710000  -8.1460000  31.3470000 -16.7640000  -7.5010000
  31.4730000 -17.6130000  -7.6620000  27.9480000 -21.3030000 -13.3780000
  27.7100000 -22.1160000 -12.9340000  27.1430000 -21.0250000 -13.8150000
  27.8150000 -21.3710000 -13.3770000  33.1410000 -21.8830000  -2.0710000
  33.4110000 -22.7870000  -1.9110000  32.1890000 -21.8960000  -1.9700000
  33.0530000 -22.0000000  -2.0370000  33.4510000 -26.1780000  -4.3740000
  32.8410000 -26.9130000  -4.3180000  33.0190000 -25.5530000  -4.9570000
  33.3180000 -26.1920000  -4.4410000  22.5490000 -25.5890000  -5.9490000
  22.0880000 -25.2450000  -6.7140000  22.6300000 -26.5280000  -6.1210000
  22.5000000 -25.6650000  -6.0690000  20.7450000 -27.9480000 -13.7640000
  21.7010000 -27.9160000 -13.7370000  20.4740000 -27.0310000 -13.7260000
  20.8330000 -27.8270000 -13.7560000  31.4130000 -30.3970000 -13.4090000
  32.0330000 -29.9530000 -13.9880000  30.6030000 -29.8930000 -13.4940000
  31.3890000 -30.2750000 -13.4940000  18.0330000 -24.3450000 -17.4480000
  18.6610000 -24.8680000 -16.9490000  18.5270000 -24.0400000 -18.2090000
  18.1770000 -24.3730000 -17.4810000  23.7050000 -22.2610000 -14.1770000
  23.0050000 -21.8630000 -14.6940000  24.1370000 -22.8640000 -14.7830000
  23.6710000 -22.2870000 -14.3210000  32.3060000 -24.3180000  -6.3550000
  32.1330000 -24.3950000  -7.2930000  33.0890000 -23.7710000  -6.3000000
  32.3840000 -24.2580000  -6.4680000  27.1240000 -27.9350000 -12.0360000
  27.6380000 -28.5340000 -12.5760000  26.8500000 -27.2440000 -12.6400000
  27.1540000 -27.9230000 -12.1820000  34.1520000 -19.3670000  -2.7450000
  34.5610000 -19.1950000  -1.8970000  33.8830000 -20.2840000  -2.7000000
  34.1700000 -19.4620000  -2.6310000  19.6110000 -20.5800000 -17.9900000
  20.1680000 -21.3380000 -17.8180000  20.1790000 -19.8250000 -17.8340000
  19.7550000 -20.5800000 -17.9480000  31.5600000 -26.5930000  -0.6830000
  30.7490000 -26.5550000  -1.1900000  31.9240000 -27.4560000  -0.8780000
  31.5030000 -26.6980000  -0.7730000  18.5050000 -27.9600000 -11.5480000
  19.1020000 -27.7050000 -12.2520000  18.8080000 -27.4650000 -10.7860000
  18.6200000 -27.8650000 -11.5410000  21.1860000 -24.4530000  -7.7430000
  21.4450000 -23.7600000  -8.3510000  20.3140000 -24.1940000  -7.4440000
  21.1080000 -24.3310000  -7.7830000  34.8740000 -26.8630000 -10.7620000
  35.7270000 -27.2050000 -11.0320000  34.8960000 -26.8920000  -9.8060000
  34.9860000 -26.9110000 -10.6750000  27.8040000 -29.9520000  -2.8570000
  27.0500000 -30.2820000  -3.3460000  27.6030000 -30.1500000  -1.9430000
  27.6820000 -30.0200000  -2.8030000  31.3540000 -30.6300000  -0.7880000
  30.5700000 -30.6680000  -0.2400000  31.9910000 -31.1800000  -0.3340000
  31.3350000 -30.7050000  -0.6600000  33.0200000 -26.1920000 -15.5470000
  33.4160000 -25.8510000 -14.7450000  33.5110000 -25.7730000 -16.2540000
  33.1330000 -26.0950000 -15.5350000  33.2140000 -19.8360000  -6.1100000
  32.7410000 -19.0030000  -6.1170000  32.6830000 -20.4170000  -6.6540000
  33.0850000 -19.8040000  -6.1800000  22.7250000 -20.9800000 -23.8660000
  21.7710000 -21.0470000 -23.8980000  22.9140000 -20.6720000 -22.9800000
  22.6260000 -20.9480000 -23.7570000  27.4900000 -23.5350000 -30.7030000
  27.3160000 -23.3740000 -29.7750000  26.7250000 -24.0210000 -31.0090000
  27.3700000 -23.5770000 -30.6230000  24.0610000 -28.6380000 -35.3720000
  23.9070000 -28.1810000 -34.5450000  24.7730000 -29.2480000 -35.1800000
  24.1320000 -28.6580000 -35.2420000  34.2220000 -22.4800000 -37.1860000
  33.3600000 -22.1510000 -37.4420000  34.1260000 -23.4310000 -37.1870000
  34.0990000 -22.5590000 -37.2190000  20.9480000 -22.3820000 -30.4090000
  20.9860000 -21.4890000 -30.7530000  20.1490000 -22.4030000 -29.8830000
  20.8510000 -22.2700000 -30.3860000  25.6590000 -20.5920000 -33.7200000
  24.8600000 -21.1190000 -33.7100000  26.0030000 -20.6950000 -34.6070000
  25.6010000 -20.6730000 -33.8320000  29.5670000 -25.6070000 -31.2530000
  29.1410000 -26.2140000 -31.8570000  28.9040000 -24.9400000 -31.0750000
  29.4280000 -25.5990000 -31.3070000  27.7690000 -27.3680000 -22.7270000
  27.6410000 -28.2340000 -22.3380000  28.2120000 -27.5430000 -23.5580000
  27.8090000 -27.5010000 -22.7840000  30.6450000 -26.4160000 -35.7080000
  31.4150000 -26.3950000 -35.1410000  30.9640000 -26.7840000 -36.5320000
  30.7840000 -26.4600000 -35.7410000  34.3630000 -25.1790000 -36.9610000
  34.4050000 -25.3130000 -37.9080000  35.2490000 -24.9120000 -36.7180000
  34.4820000 -25.1620000 -37.0510000  19.7660000 -26.7010000 -21.5770000
  18.8450000 -26.9210000 -21.7170000  19.8460000 -26.5940000 -20.6300000
  19.6580000 -26.7160000 -21.4740000  31.3560000 -23.0120000 -30.3720000
  31.5320000 -22.1620000 -30.7750000  30.5970000 -23.3490000 -30.8460000
  31.2820000 -22.9460000 -30.4840000  31.1460000 -19.6870000 -29.1200000
  31.7320000 -18.9500000 -29.2950000  30.3640000 -19.5010000 -29.6390000
  31.1210000 -19.5690000 -29.2090000  27.5550000 -31.0460000 -32.0510000
  26.7300000 -31.0650000 -32.5360000  27.3040000 -31.2320000 -31.1460000
  27.4170000 -31.0720000 -31.9970000  24.6690000 -21.3810000 -27.4340000
  24.4080000 -21.7560000 -26.5930000  25.4000000 -21.9260000 -27.7230000
  24.7290000 -21.4990000 -27.3640000  22.9070000 -23.1880000 -28.7190000
  22.1830000 -22.8850000 -29.2670000  23.5010000 -22.4380000 -28.6710000
  22.8910000 -23.0530000 -28.7830000  22.3800000 -29.4240000 -37.3810000
  21.7770000 -28.6870000 -37.4770000  23.0090000 -29.1350000 -36.7200000
  22.3830000 -29.2930000 -37.3090000  26.8070000 -20.9620000 -36.0880000
  27.2660000 -21.7840000 -35.9160000  27.5050000 -20.3220000 -36.2270000
  26.9550000 -20.9850000 -36.0840000  25.5300000 -30.4710000 -27.1060000
  26.4110000 -30.1800000 -26.8740000  25.6160000 -30.8050000 -27.9990000
  25.6540000 -30.4760000 -27.1910000  19.4240000 -24.0080000 -19.7720000
  18.6620000 -23.4400000 -19.8890000  19.6290000 -24.3180000 -20.6540000
  19.3520000 -23.9750000 -19.9000000  21.4950000 -22.7130000 -18.4350000
  21.9780000 -22.1530000 -19.0420000  21.0520000 -23.3490000 -18.9960000
  21.5000000 -22.7220000 -18.5840000  25.1210000 -20.9770000 -19.6370000
  25.6950000 -21.0640000 -18.8760000  25.0790000 -20.0350000 -19.7990000
  25.1890000 -20.8680000 -19.5610000  34.9560000 -26.6440000 -26.8000000
  35.3960000 -26.1370000 -26.1170000  34.2840000 -27.1410000 -26.3340000
  34.9270000 -26.6430000 -26.6530000  25.4760000 -27.1230000 -19.7360000
  25.3190000 -28.0670000 -19.7720000  25.3870000 -26.8310000 -20.6430000
  25.4440000 -27.2070000 -19.8570000  29.6830000 -23.8150000 -35.6340000
  29.9870000 -24.7080000 -35.4780000  30.2100000 -23.2750000 -35.0450000
  29.7890000 -23.8600000 -35.5390000  32.7930000 -28.1420000 -25.8800000
  31.9180000 -28.3990000 -26.1700000  33.1450000 -28.9250000 -25.4560000
  32.7260000 -28.2750000 -25.8630000  22.5010000 -21.2260000 -20.7220000
  22.2500000 -20.3220000 -20.5310000  23.4070000 -21.2910000 -20.4190000
  22.5860000 -21.1180000 -20.6590000  20.2130000 -19.4200000 -32.8980000
  19.4320000 -19.5520000 -33.4360000  20.1830000 -18.4950000 -32.6540000
  20.1090000 -19.3180000 -32.9360000  30.2640000 -23.6180000 -20.9470000
  30.8460000 -23.7820000 -20.2060000  29.6700000 -22.9320000 -20.6390000
  30.2620000 -23.5510000 -20.8130000  26.5660000 -23.1550000 -28.2080000
  26.0860000 -23.9620000 -28.0310000  27.2950000 -23.1680000 -27.5890000
  26.5980000 -23.2600000 -28.1060000  26.1090000 -30.6530000 -23.8210000
  25.2640000 -30.9730000 -23.5040000  26.5820000 -31.4440000 -24.0800000
  26.0610000 -30.7950000 -23.8130000  23.0360000 -25.4670000 -19.4870000
  23.8470000 -25.9550000 -19.6290000  22.7670000 -25.1900000 -20.3630000
  23.1050000 -25.4940000 -19.6180000  21.9440000 -20.8950000 -34.3640000
  21.3620000 -20.3970000 -33.7910000  22.1730000 -20.2840000 -35.0640000
  21.8990000 -20.7530000 -34.3800000  25.2980000 -26.4280000 -22.4590000
  26.1780000 -26.8000000 -22.5110000  24.7600000 -27.0080000 -22.9960000
  25.3420000 -26.5490000 -22.5340000  34.2870000 -22.7160000 -24.1020000
  33.9360000 -22.8190000 -23.2170000  34.4350000 -21.7740000 -24.1920000
  34.2610000 -22.6090000 -24.0000000  31.7420000 -28.1700000 -22.8100000
  31.1850000 -28.5650000 -23.4820000  31.1660000 -27.5600000 -22.3500000
  31.5970000 -28.1420000 -22.8370000  35.6560000 -28.9090000 -19.6160000
  34.8330000 -28.5690000 -19.9650000  35.5120000 -28.9650000 -18.6710000
  35.5330000 -28.8730000 -19.5400000  22.5810000 -28.5920000 -25.1840000
  22.2040000 -28.7190000 -24.3140000  22.0180000 -29.1030000 -25.7660000
  22.4610000 -28.6730000 -25.1470000  31.5880000 -27.0820000 -29.7290000
  32.1330000 -26.5810000 -29.1220000  30.8940000 -26.4750000 -29.9860000
  31.5690000 -26.9410000 -29.6840000  19.5710000 -25.5160000 -28.9080000
  19.9650000 -25.5860000 -29.7780000  20.1830000 -25.9710000 -28.3310000
  19.7000000 -25.5830000 -28.9460000  34.2920000 -29.8360000 -33.5360000
  34.2490000 -29.2170000 -32.8060000  33.9260000 -30.6470000 -33.1840000
  34.2400000 -29.8600000 -33.3970000  29.0420000 -28.9720000 -33.0570000
  28.3700000 -29.6530000 -33.0270000  29.1210000 -28.7550000 -33.9860000
  28.9660000 -29.0310000 -33.1720000  30.2280000 -19.9930000 -23.9390000
  29.6790000 -20.0620000 -24.7190000  30.5920000 -20.8700000 -23.8230000
  30.2050000 -20.1140000 -24.0240000  24.6620000 -29.9980000 -19.9880000
  24.5470000 -30.2820000 -20.8950000  23.7710000 -29.8950000 -19.6550000
  24.5330000 -30.0210000 -20.0620000  25.0920000 -25.4800000 -27.1100000
  25.0520000 -26.4350000 -27.1470000  24.6370000 -25.2510000 -26.3000000
  25.0290000 -25.5720000 -27.0110000  33.0570000 -28.8260000 -20.4280000
  32.3660000 -29.4660000 -20.2600000  32.8490000 -28.4700000 -21.2910000
  32.9420000 -28.8630000 -20.5170000  18.6750000 -29.7240000 -33.2910000
  19.3400000 -29.1240000 -32.9530000  17.8430000 -29.2900000 -33.1020000
  18.6540000 -29.5920000 -33.2230000  21.0080000 -25.2800000 -31.0890000
  21.6870000 -25.5590000 -30.4750000  21.1060000 -24.3300000 -31.1380000
  21.1070000 -25.1930000 -31.0160000  26.4220000 -26.5430000 -36.0020000
  26.0390000 -26.8530000 -36.8230000  26.6610000 -25.6320000 -36.1770000
  26.4040000 -26.4660000 -36.1290000  28.9350000 -22.8680000 -26.7000000
  28.8710000 -23.3880000 -25.8980000  29.4800000 -22.1190000 -26.4570000
  28.9960000 -22.8390000 -26.5660000  34.4340000 -23.9720000 -30.0810000
  33.5190000 -23.9620000 -30.3640000  34.5560000 -24.8400000 -29.6960000
  34.3320000 -24.0820000 -30.0680000  24.0560000 -27.6550000 -32.9970000
  24.8790000 -27.1690000 -33.0350000  24.1070000 -28.1500000 -32.1800000
  24.1680000 -27.6560000 -32.8980000  20.7470000 -19.7800000 -28.9210000
  20.2050000 -19.3570000 -28.2540000  21.6460000 -19.5830000 -28.6590000
  20.7920000 -19.7000000 -28.8020000  26.3510000 -26.0180000 -32.9950000
  25.8280000 -25.3150000 -32.6090000  26.3630000 -25.8220000 -33.9310000
  26.2860000 -25.9030000 -33.0650000  33.3940000 -31.1510000 -36.8310000
  33.8720000 -31.5050000 -37.5800000  33.8960000 -30.3800000 -36.5680000
  33.5190000 -31.0970000 -36.8930000  22.2880000 -25.7150000 -22.0010000
  22.2500000 -25.3980000 -22.9030000  21.4160000 -26.0740000 -21.8360000
  22.1710000 -25.7210000 -22.0950000  26.1960000 -23.9750000 -23.4260000
  25.4130000 -23.5690000 -23.7950000  25.9080000 -24.8460000 -23.1530000
  26.0590000 -24.0350000 -23.4380000  19.9340000 -21.9630000 -26.6830000
  20.5890000 -21.6020000 -27.2800000  19.2560000 -22.3180000 -27.2580000
  19.9310000 -21.9620000 -26.8330000  25.2220000 -28.0180000 -24.9470000
  25.5470000 -28.8210000 -24.5400000  24.3530000 -28.2500000 -25.2730000
  25.1520000 -28.1500000 -24.9370000  20.8380000 -27.0850000 -18.9780000
  21.6410000 -26.5740000 -19.0880000  20.3880000 -26.6660000 -18.2440000
  20.8830000 -26.9650000 -18.8980000  31.3340000 -29.9360000 -29.7180000
  31.8320000 -30.1430000 -30.5090000  31.5180000 -29.0110000 -29.5540000
  31.4210000 -29.8440000 -29.7980000  19.9230000 -26.1530000 -35.5190000
  20.6900000 -26.4760000 -35.0440000  19.1810000 -26.3920000 -34.9640000
  19.9260000 -26.2250000 -35.3870000  28.6550000 -29.3400000 -29.0950000
  28.2480000 -28.5800000 -29.5110000  29.5170000 -29.4050000 -29.5050000
  28.7130000 -29.2510000 -29.2010000  33.1920000 -28.1010000 -31.6130000
  33.8660000 -27.6900000 -31.0730000  32.3820000 -27.6550000 -31.3670000
  33.1750000 -27.9910000 -31.5130000  21.3460000 -27.6100000 -28.1100000
  22.3030000 -27.6260000 -28.1290000  21.1010000 -28.4240000 -27.6700000
  21.4370000 -27.7160000 -28.0560000  28.7230000 -24.2470000 -24.2620000
  29.1160000 -23.4260000 -23.9660000  27.8100000 -24.1920000 -23.9800000
  28.6570000 -24.1350000 -24.1880000  33.9470000 -30.9640000 -25.1130000
  33.6820000 -31.6150000 -24.4630000  34.1660000 -31.4760000 -25.8910000
  33.9410000 -31.1120000 -25.1290000  24.6930000 -29.1700000 -30.8880000
  24.8810000 -29.9220000 -31.4500000  25.5490000 -28.7800000 -30.7180000
  24.8260000 -29.2160000 -30.9380000  27.1430000 -23.9630000 -36.6050000
  27.9870000 -24.0010000 -36.1540000  27.3660000 -23.7580000 -37.5130000
  27.2800000 -23.9420000 -36.6630000  24.1940000 -28.1730000 -28.3360000
  24.4510000 -28.5910000 -29.1580000  24.2780000 -28.8650000 -27.6800000
  24.2380000 -28.3150000 -28.3570000  31.5060000 -23.7180000 -27.8770000
  31.6040000 -23.4710000 -28.7970000  30.6520000 -23.3680000 -27.6250000
  31.4090000 -23.6420000 -27.9620000  28.8960000 -19.3040000 -30.5380000
  28.7110000 -20.1310000 -30.9840000  28.5840000 -18.6310000 -31.1430000
  28.8320000 -19.3240000 -30.6730000  30.4840000 -20.0690000 -37.4480000
  30.6420000 -19.2300000 -37.8810000  30.7460000 -19.9220000 -36.5390000
  30.5380000 -19.9430000 -37.3870000  32.5940000 -21.2920000 -27.3380000
  32.0500000 -20.6920000 -27.8490000  32.2030000 -22.1530000 -27.4840000
  32.4750000 -21.3250000 -27.4220000  26.6860000 -18.9240000 -28.3650000
  26.6520000 -19.6110000 -27.7000000  27.1620000 -19.3190000 -29.0950000
  26.7420000 -19.0620000 -28.3730000  28.5650000 -28.1960000 -35.6770000
  29.2950000 -27.5760000 -35.6880000  27.7830000 -27.6450000 -35.7080000
  28.5580000 -28.0460000 -35.6830000  28.1970000 -30.8150000 -26.5610000
  27.7480000 -31.5690000 -26.1790000  28.9190000 -31.1950000 -27.0610000
  28.2320000 -30.9600000 -26.5760000  29.7320000 -26.6910000 -24.8490000
  29.4560000 -25.8670000 -24.4470000  30.6830000 -26.7050000 -24.7400000
  29.8190000 -26.5870000 -24.7840000  29.0880000 -19.4680000 -26.6000000
  29.8780000 -18.9300000 -26.6540000  28.4880000 -19.0760000 -27.2340000
  29.1120000 -19.3490000 -26.6880000  21.1180000 -28.8430000 -22.7120000
  20.4390000 -28.2050000 -22.4920000  20.7090000 -29.6920000 -22.5490000
  20.9780000 -28.8700000 -22.6630000  32.0780000 -20.8380000 -31.7480000
  31.7100000 -20.2570000 -31.0830000  32.9690000 -20.5150000 -31.8820000
  32.1450000 -20.7220000 -31.6800000  30.1830000 -28.4010000 -26.7630000
  29.9150000 -27.7580000 -26.1060000  29.3840000 -28.5830000 -27.2590000
  30.0460000 -28.3420000 -26.7430000  18.7250000 -30.7630000 -20.1430000
  18.1250000 -30.0300000 -20.0020000  19.2720000 -30.7800000 -19.3570000
  18.7180000 -30.6710000 -20.0240000  30.1600000 -30.0670000 -24.2010000
  29.9970000 -29.7580000 -25.0920000  29.2990000 -30.3310000 -23.8780000
  30.0290000 -30.0610000 -24.2730000  22.9570000 -25.1470000 -35.7710000
  23.0430000 -25.1980000 -36.7230000  22.4040000 -24.3790000 -35.6220000
  22.8970000 -25.0550000 -35.8740000  30.0920000 -26.4050000 -21.6650000
  29.2740000 -26.5600000 -22.1360000  30.1400000 -25.4520000 -21.5760000
  29.9940000 -26.3030000 -21.7140000  20.4710000 -29.9260000 -26.9120000
  19.6920000 -29.4200000 -26.6810000  20.2090000 -30.8390000 -26.7890000
  20.3380000 -29.9780000 -26.8670000  23.5670000 -25.7690000 -29.8060000
  23.4800000 -24.9890000 -29.2570000  23.6390000 -26.4930000 -29.1830000
  23.5650000 -25.7620000 -29.6560000  23.6690000 -30.6280000 -22.6220000
  23.5780000 -30.7480000 -23.5670000  22.9450000 -30.0500000 -22.3840000
  23.5650000 -30.5690000 -22.7130000  35.8360000 -21.6530000 -31.4300000
  35.9060000 -22.2820000 -30.7130000  35.9020000 -22.1850000 -32.2230000
  35.8530000 -21.8010000 -31.4400000  25.2940000 -31.0660000 -33.2840000
  25.6670000 -31.1310000 -34.1630000  24.3890000 -31.3620000 -33.3850000
  25.2260000 -31.1130000 -33.4090000  24.9930000 -23.9090000 -34.8500000
  24.2610000 -24.3980000 -35.2260000  25.6530000 -23.8960000 -35.5420000
  24.9830000 -23.9700000 -34.9860000  19.9390000 -20.5640000 -24.2790000
  19.6460000 -20.8370000 -25.1490000  19.6310000 -19.6620000 -24.1950000
  19.8620000 -20.4840000 -24.3800000  28.4840000 -30.4980000 -37.6600000
  28.4650000 -29.8480000 -36.9580000  28.8390000 -31.2860000 -37.2480000
  28.5270000 -30.5150000 -37.5180000  23.8540000 -23.2000000 -24.8810000
  23.2840000 -22.5130000 -24.5340000  23.4020000 -24.0160000 -24.6670000
  23.7230000 -23.2160000 -24.8090000  30.4460000 -21.6190000 -33.7900000
  29.7610000 -21.6910000 -33.1250000  31.2440000 -21.4410000 -33.2930000
  30.4600000 -21.6060000 -33.6410000  31.4550000 -22.6470000 -37.5430000
  31.0550000 -21.7800000 -37.4930000  30.9790000 -23.1680000 -36.8960000
  31.3430000 -22.6020000 -37.4540000  24.8340000 -24.3260000 -31.6870000
  24.1980000 -24.7810000 -31.1360000  24.3460000 -23.5920000 -32.0600000
  24.6910000 -24.2900000 -31.6640000  30.7120000 -22.6550000 -23.4820000
  30.5090000 -22.9650000 -22.6000000  31.2260000 -23.3630000 -23.8720000
  30.7520000 -22.7860000 -23.4190000  33.3570000 -25.0530000 -20.8350000
  32.7170000 -25.5860000 -20.3630000  33.3190000 -25.3760000 -21.7360000
  33.2700000 -25.1630000 -20.8900000  27.1240000 -22.6850000 -20.7000000
  26.7370000 -23.0500000 -21.4960000  26.4760000 -22.0560000 -20.3850000
  26.9910000 -22.6530000 -20.7610000  19.4840000 -23.3310000 -23.3310000
  19.1020000 -22.4880000 -23.0870000  20.3080000 -23.1050000 -23.7620000
  19.5400000 -23.1940000 -23.3550000  35.0920000 -25.1940000 -32.5860000
  35.1140000 -25.0780000 -31.6360000  35.2650000 -24.3210000 -32.9370000
  35.1170000 -25.0670000 -32.5090000  34.4670000 -19.2540000 -32.2790000
  34.2030000 -19.2900000 -33.1980000  35.0890000 -19.9750000 -32.1800000
  34.5130000 -19.3510000 -32.3840000  31.6410000 -19.2580000 -34.7680000
  31.1250000 -19.9430000 -34.3420000  31.1580000 -18.4510000 -34.5940000
  31.5130000 -19.2430000 -34.6910000  20.1320000 -31.3470000 -22.3840000
  19.5660000 -30.9860000 -23.0660000  19.6360000 -31.2310000 -21.5740000
  19.9960000 -31.2860000 -22.3680000  31.3780000 -17.7150000 -26.4670000
  32.1530000 -17.8710000 -27.0060000  31.3470000 -16.7640000 -26.3610000
  31.4730000 -17.6130000 -26.5220000  27.9480000 -21.3030000 -32.2380000
  27.7100000 -22.1160000 -31.7940000  27.1430000 -21.0250000 -32.6750000
  27.8150000 -21.3710000 -32.2370000  33.1410000 -21.8830000 -20.9310000
  33.4110000 -22.7870000 -20.7710000  32.1890000 -21.8960000 -20.8300000
  33.0530000 -22.0000000 -20.8970000  33.4510000 -26.1780000 -23.2340000
  32.8410000 -26.9130000 -23.1780000  33.0190000 -25.5530000 -23.8170000
  33.3180000 -26.1920000 -23.3010000  22.5490000 -25.5890000 -24.8090000
  22.0880000 -25.2450000 -25.5740000  22.6300000 -26.5280000 -24.9810000
  22.5000000 -25.6650000 -24.9290000  20.7450000 -27.9480000 -32.6240000
  21.7010000 -27.9160000 -32.5970000  20.4740000 -27.0310000 -32.5860000
  20.8330000 -27.8270000 -32.6160000  31.4130000 -30.3970000 -32.2690000
  32.0330000 -29.9530000 -32.8480000  30.6030000 -29.8930000 -32.3540000
  31.3890000 -30.2750000 -32.3540000  18.0330000 -24.3450000 -36.3080000
  18.6610000 -24.8680000 -35.8090000  18.5270000 -24.0400000 -37.0690000
  18.1770000 -24.3730000 -36.3410000  23.7050000 -22.2610000 -33.0370000
  23.0050000 -21.8630000 -33.5540000  24.1370000 -22.8640000 -33.6430000
  23.6710000 -22.2870000 -33.1810000  32.3060000 -24.3180000 -25.2150000
  32.1330000 -24.3950000 -26.1530000  33.0890000 -23.7710000 -25.1600000
  32.3840000 -24.2580000 -25.3280000  27.1240000 -27.9350000 -30.8960000
  27.6380000 -28.5340000 -31.4360000  26.8500000 -27.2440000 -31.5000000
  27.1540000 -27.9230000 -31.0420000  34.1520000 -19.3670000 -21.6050000
  34.5610000 -19.1950000 -20.7570000  33.8830000 -20.2840000 -21.5600000
  34.1700000 -19.4620000 -21.4910000  19.6110000 -20.5800000 -36.8500000
  20.1680000 -21.3380000 -36.6780000  20.1790000 -19.8250000 -36.6940000
  19.7550000 -20.5800000 -36.8080000  31.5600000 -26.5930000 -19.5430000
  30.7490000 -26.5550000 -20.0500000  31.9240000 -27.4560000 -19.7380000
  31.5030000 -26.6980000 -19.6330000  18.5050000 -27.9600000 -30.4080000
  19.1020000 -27.7050000 -31.1120000  18.8080000 -27.4650000 -29.6460000
  18.6200000 -27.8650000 -30.4010000  21.1860000 -24.4530000 -26.6030000
  21.4450000 -23.7600000 -27.2110000  20.3140000 -24.1940000 -26.3040000
  21.1080000 -24.3310000 -26.6430000  34.8740000 -26.8630000 -29.6220000
  35.7270000 -27.2050000 -29.8920000  34.8960000 -26.8920000 -28.6660000
  34.9860000 -26.9110000 -29.5350000  27.8040000 -29.9520000 -21.7170000
  27.0500000 -30.2820000 -22.2060000  27.6030000 -30.1500000 -20.8030000
  27.6820000 -30.0200000 -21.6630000  31.3540000 -30.6300000 -19.6480000
  30.5700000 -30.6680000 -19.1000000  31.9910000 -31.1800000 -19.1940000
  31.3350000 -30.7050000 -19.5200000  33.0200000 -26.1920000 -34.4070000
  33.4160000 -25.8510000 -33.6050000  33.5110000 -25.7730000 -35.1140000
  33.1330000 -26.0950000 -34.3950000  33.2140000 -19.8360000 -24.9700000
  32.7410000 -19.0030000 -24.9770000  32.6830000 -20.4170000 -25.5140000
  33.0850000 -19.8040000 -25.0400000  22.7250000 -20.9800000 -42.7260000
  21.7710000 -21.0470000 -42.7580000  22.9140000 -20.6720000 -41.8400000
  22.6260000 -20.9480000 -42.6170000  27.7690000 -27.3680000 -41.5870000
  27.6410000 -28.2340000 -41.1980000  28.2120000 -27.5430000 -42.4180000
  27.8090000 -27.5010000 -41.6440000  19.7660000 -26.7010000 -40.4370000
  18.8450000 -26.9210000 -40.5770000  19.8460000 -26.5940000 -39.4900000
  19.6580000 -26.7160000 -40.3340000  31.1460000 -19.6870000 -47.9800000
  31.7320000 -18.9500000 -48.1550000  30.3640000 -19.5010000 -48.4990000
  31.1210000 -19.5690000 -48.0690000  29.9350000 -31.5470000 -40.4430000
  30.5210000 -31.2340000 -39.7540000  29.2090000 -30.9220000 -40.4430000
  29.9170000 -31.4280000 -40.3550000  24.6690000 -21.3810000 -46.2940000
  24.4080000 -21.7560000 -45.4530000  25.4000000 -21.9260000 -46.5830000
  24.7290000 -21.4990000 -46.2240000  22.9070000 -23.1880000 -47.5790000
  22.1830000 -22.8850000 -48.1270000  23.5010000 -22.4380000 -47.5310000
  22.8910000 -23.0530000 -47.6430000  25.5300000 -30.4710000 -45.9660000
  26.4110000 -30.1800000 -45.7330000  25.6160000 -30.8050000 -46.8580000
  25.6540000 -30.4760000 -46.0510000  19.4240000 -24.0080000 -38.6320000
  18.6620000 -23.4400000 -38.7490000  19.6290000 -24.3180000 -39.5140000
  19.3520000 -23.9750000 -38.7600000  21.4950000 -22.7130000 -37.2950000
  21.9780000 -22.1530000 -37.9020000  21.0520000 -23.3490000 -37.8560000
  21.5000000 -22.7220000 -37.4440000  25.1210000 -20.9770000 -38.4970000
  25.6950000 -21.0640000 -37.7360000  25.0790000 -20.0350000 -38.6590000
  25.1890000 -20.8680000 -38.4210000  34.9560000 -26.6440000 -45.6600000
  35.3960000 -26.1370000 -44.9770000  34.2840000 -27.1410000 -45.1940000
  34.9270000 -26.6430000 -45.5130000  25.4760000 -27.1230000 -38.5960000
  25.3190000 -28.0670000 -38.6320000  25.3870000 -26.8310000 -39.5030000
  25.4440000 -27.2070000 -38.7170000  32.7930000 -28.1420000 -44.7400000
  31.9180000 -28.3990000 -45.0300000  33.1450000 -28.9250000 -44.3150000
  32.7260000 -28.2750000 -44.7230000  22.5010000 -21.2260000 -39.5820000
  22.2500000 -20.3220000 -39.3910000  23.4070000 -21.2910000 -39.2790000
  22.5860000 -21.1180000 -39.5190000  30.2640000 -23.6180000 -39.8070000
  30.8460000 -23.7820000 -39.0660000  29.6700000 -22.9320000 -39.4990000
  30.2620000 -23.5510000 -39.6730000  26.5660000 -23.1550000 -47.0680000
  26.0860000 -23.9620000 -46.8910000  27.2950000 -23.1680000 -46.4490000
  26.5980000 -23.2600000 -46.9660000  26.1090000 -30.6530000 -42.6810000
  25.2640000 -30.9730000 -42.3640000  26.5820000 -31.4440000 -42.9400000
  26.0610000 -30.7950000 -42.6730000  23.0360000 -25.4670000 -38.3470000
  23.8470000 -25.9550000 -38.4890000  22.7670000 -25.1900000 -39.2230000
  23.1050000 -25.4940000 -38.4780000  25.2980000 -26.4280000 -41.3190000
  26.1780000 -26.8000000 -41.3710000  24.7600000 -27.0080000 -41.8560000
  25.3420000 -26.5490000 -41.3940000  34.2870000 -22.7160000 -42.9620000
  33.9360000 -22.8190000 -42.0770000  34.4350000 -21.7740000 -43.0520000
  34.2610000 -22.6090000 -42.8600000  31.7420000 -28.1700000 -41.6700000
  31.1850000 -28.5650000 -42.3420000  31.1660000 -27.5600000 -41.2100000
  31.5970000 -28.1420000 -41.6970000  35.6560000 -28.9090000 -38.4760000
  34.8330000 -28.5690000 -38.8250000  35.5120000 -28.9650000 -37.5310000
  35.5330000 -28.8730000 -38.4000000  22.5810000 -28.5920000 -44.0440000
  22.2040000 -28.7190000 -43.1740000  22.0180000 -29.1030000 -44.6260000
  22.4610000 -28.6730000 -44.0070000  31.5880000 -27.0820000 -48.5890000
  32.1330000 -26.5810000 -47.9820000  30.8940000 -26.4750000 -48.8460000
  31.5690000 -26.9410000 -48.5440000  19.5710000 -25.5160000 -47.7680000
  19.9650000 -25.5860000 -48.6380000  20.1830000 -25.9710000 -47.1900000
  19.7000000 -25.5830000 -47.8060000  30.2280000 -19.9930000 -42.7990000
  29.6790000 -20.0620000 -43.5790000  30.5920000 -20.8700000 -42.6830000
  30.2050000 -20.1140000 -42.8840000  24.6620000 -29.9980000 -38.8480000
  24.5470000 -30.2820000 -39.7550000  23.7710000 -29.8950000 -38.5150000
  24.5330000 -30.0210000 -38.9220000  25.0920000 -25.4800000 -45.9700000
  25.0520000 -26.4350000 -46.0070000  24.6370000 -25.2510000 -45.1600000
  25.0290000 -25.5720000 -45.8710000  33.0570000 -28.8260000 -39.2880000
  32.3660000 -29.4660000 -39.1200000  32.8490000 -28.4700000 -40.1510000
  32.9420000 -28.8630000 -39.3770000  28.9350000 -22.8680000 -45.5600000
  28.8710000 -23.3880000 -44.7580000  29.4800000 -22.1190000 -45.3170000
  28.9960000 -22.8390000 -45.4260000  20.7470000 -19.7800000 -47.7810000
  20.2050000 -19.3570000 -47.1140000  21.6460000 -19.5830000 -47.5190000
  20.7920000 -19.7000000 -47.6620000  22.2880000 -25.7150000 -40.8610000
  22.2500000 -25.3980000 -41.7630000  21.4160000 -26.0740000 -40.6960000
  22.1710000 -25.7210000 -40.9550000  26.1960000 -23.9750000 -42.2860000
  25.4130000 -23.5690000 -42.6550000  25.9080000 -24.8460000 -42.0130000
  26.0590000 -24.0350000 -42.2980000  19.9340000 -21.9630000 -45.5430000
  20.5890000 -21.6020000 -46.1400000  19.2560000 -22.3180000 -46.1180000
  19.9310000 -21.9620000 -45.6930000  25.2220000 -28.0180000 -43.8070000
  25.5470000 -28.8210000 -43.4000000  24.3530000 -28.2500000 -44.1330000
  25.1520000 -28.1500000 -43.7970000  20.8380000 -27.0850000 -37.8380000
  21.6410000 -26.5740000 -37.9470000  20.3880000 -26.6660000 -37.1040000
  20.8830000 -26.9650000 -37.7580000  28.6550000 -29.3400000 -47.9550000
  28.2480000 -28.5800000 -48.3710000  29.5170000 -29.4050000 -48.3650000
  28.7130000 -29.2510000 -48.0610000  21.3460000 -27.6100000 -46.9700000
  22.3030000 -27.6260000 -46.9890000  21.1010000 -28.4240000 -46.5300000
  21.4370000 -27.7160000 -46.9160000  28.7230000 -24.2470000 -43.1220000
  29.1160000 -23.4260000 -42.8260000  27.8100000 -24.1920000 -42.8400000
  28.6570000 -24.1350000 -43.0480000  33.9470000 -30.9640000 -43.9730000
  33.6820000 -31.6150000 -43.3230000  34.1660000 -31.4760000 -44.7510000
  33.9410000 -31.1120000 -43.9890000  24.1940000 -28.1730000 -47.1960000
  24.4510000 -28.5910000 -48.0180000  24.2780000 -28.8650000 -46.5400000
  24.2380000 -28.3150000 -47.2170000  31.5060000 -23.7180000 -46.7370000
  31.6040000 -23.4710000 -47.6570000  30.6520000 -23.3680000 -46.4850000
  31.4090000 -23.6420000 -46.8220000  32.5940000 -21.2920000 -46.1980000
  32.0500000 -20.6920000 -46.7090000  32.2030000 -22.1530000 -46.3440000
  32.4750000 -21.3250000 -46.2820000  26.6860000 -18.9240000 -47.2250000
  26.6520000 -19.6110000 -46.5600000  27.1620000 -19.3190000 -47.9550000
  26.7420000 -19.0620000 -47.2330000  28.1970000 -30.8150000 -45.4210000
  27.7480000 -31.5690000 -45.0390000  28.9190000 -31.1950000 -45.9210000
  28.2320000 -30.9600000 -45.4360000  29.7320000 -26.6910000 -43.7090000
  29.4560000 -25.8670000 -43.3070000  30.6830000 -26.7050000 -43.6000000
  29.8190000 -26.5870000 -43.6440000  29.0880000 -19.4680000 -45.4600000
  29.8780000 -18.9300000 -45.5140000  28.4880000 -19.0760000 -46.0940000
  29.1120000 -19.3490000 -45.5480000  21.1180000 -28.8430000 -41.5720000
  20.4390000 -28.2050000 -41.3520000  20.7090000 -29.6920000 -41.4090000
  20.9780000 -28.8700000 -41.5230000  30.1830000 -28.4010000 -45.6230000
  29.9150000 -27.7580000 -44.9650000  29.3840000 -28.5830000 -46.1190000
  30.0460000 -28.3420000 -45.6030000  18.7250000 -30.7630000 -39.0030000
  18.1250000 -30.0300000 -38.8620000  19.2720000 -30.7800000 -38.2170000
  18.7180000 -30.6710000 -38.8840000  30.1600000 -30.0670000 -43.0610000
  29.9970000 -29.7580000 -43.9520000  29.2990000 -30.3310000 -42.7380000
  30.0290000 -30.0610000 -43.1330000  30.0920000 -26.4050000 -40.5250000
  29.2740000 -26.5600000 -40.9960000  30.1400000 -25.4520000 -40.4360000
  29.9940000 -26.3030000 -40.5740000  20.4710000 -29.9260000 -45.7720000
  19.6920000 -29.4200000 -45.5410000  20.2090000 -30.8390000 -45.6490000
  20.3380000 -29.9780000 -45.7270000  23.5670000 -25.7690000 -48.6660000
  23.4800000 -24.9890000 -48.1170000  23.6390000 -26.4930000 -48.0430000
  23.5650000 -25.7620000 -48.5160000  23.6690000 -30.6280000 -41.4820000
  23.5780000 -30.7480000 -42.4270000  22.9450000 -30.0500000 -41.2440000
  23.5650000 -30.5690000 -41.5730000  19.9390000 -20.5640000 -43.1390000
  19.6460000 -20.8370000 -44.0090000  19.6310000 -19.6620000 -43.0550000
  19.8620000 -20.4840000 -43.2400000  23.8540000 -23.2000000 -43.7410000
  23.2840000 -22.5130000 -43.3940000  23.4020000 -24.0160000 -43.5270000
  23.7230000 -23.2160000 -43.6690000  30.7120000 -22.6550000 -42.3420000
  30.5090000 -22.9650000 -41.4600000  31.2260000 -23.3630000 -42.7320000
  30.7520000 -22.7860000 -42.2790000  33.3570000 -25.0530000 -39.6950000
  32.7170000 -25.5860000 -39.2230000  33.3190000 -25.3760000 -40.5960000
  33.2700000 -25.1630000 -39.7500000  27.1240000 -22.6850000 -39.5600000
  26.7370000 -23.0500000 -40.3560000  26.4760000 -22.0560000 -39.2450000
  26.9910000 -22.6530000 -39.6210000  19.4840000 -23.3310000 -42.1900000
  19.1020000 -22.4880000 -41.9470000  20.3080000 -23.1050000 -42.6220000
  19.5400000 -23.1940000 -42.2150000  20.1320000 -31.3470000 -41.2440000
  19.5660000 -30.9860000 -41.9260000  19.6360000 -31.2310000 -40.4340000
  19.9960000 -31.2860000 -41.2280000  31.3780000 -17.7150000 -45.3270000
  32.1530000 -17.8710000 -45.8660000  31.3470000 -16.7640000 -45.2210000
  31.4730000 -17.6130000 -45.3820000  33.1410000 -21.8830000 -39.7910000
  33.4110000 -22.7870000 -39.6310000  32.1890000 -21.8960000 -39.6900000
  33.0530000 -22.0000000 -39.7570000  33.4510000 -26.1780000 -42.0940000
  32.8410000 -26.9130000 -42.0380000  33.0190000 -25.5530000 -42.6770000
  33.3180000 -26.1920000 -42.1610000  22.5490000 -25.5890000 -43.6690000
  22.0880000 -25.2450000 -44.4340000  22.6300000 -26.5280000 -43.8400000
  22.5000000 -25.6650000 -43.7890000  32.3060000 -24.3180000 -44.0750000
  32.1330000 -24.3950000 -45.0130000  33.0890000 -23.7710000 -44.0200000
  32.3840000 -24.2580000 -44.1880000  34.1520000 -19.3670000 -40.4650000
  34.5610000 -19.1950000 -39.6170000  33.8830000 -20.2840000 -40.4200000
  34.1700000 -19.4620000 -40.3510000  31.5600000 -26.5930000 -38.4030000
  30.7490000 -26.5550000 -38.9100000  31.9240000 -27.4560000 -38.5980000
  31.5030000 -26.6980000 -38.4930000  21.1860000 -24.4530000 -45.4630000
  21.4450000 -23.7600000 -46.0710000  20.3140000 -24.1940000 -45.1640000
  21.1080000 -24.3310000 -45.5030000  34.8740000 -26.8630000 -48.4820000
  35.7270000 -27.2050000 -48.7520000  34.8960000 -26.8920000 -47.5260000
  34.9860000 -26.9110000 -48.3950000  27.8040000 -29.9520000 -40.5770000
  27.0500000 -30.2820000 -41.0650000  27.6030000 -30.1500000 -39.6630000
  27.6820000 -30.0200000 -40.5230000  31.3540000 -30.6300000 -38.5080000
  30.5700000 -30.6680000 -37.9600000  31.9910000 -31.1800000 -38.0540000
  31.3350000 -30.7050000 -38.3800000  33.2140000 -19.8360000 -43.8300000
  32.7410000 -19.0030000 -43.8370000  32.6830000 -20.4170000 -44.3740000
  33.0850000 -19.8040000 -43.9000000   5.2010000  27.9630000  40.0680000
   5.0470000  28.4200000  40.8950000   5.9130000  27.3530000  40.2600000
   5.2720000  27.9430000  40.1980000  16.4590000  21.6260000  43.4400000
  16.5270000  20.6790000  43.3170000  17.3280000  21.8910000  43.7420000
  16.5790000  21.5390000  43.4640000  17.5780000  25.9170000  45.2820000
  16.7990000  26.0270000  45.8270000  17.9220000  26.8030000  45.1720000
  17.5220000  26.0440000  45.3370000   8.6740000  22.0450000  39.4300000
   8.4080000  21.5820000  40.2240000   8.6900000  21.3680000  38.7530000
   8.6420000  21.8990000  39.4450000  11.7850000  30.1850000  39.7320000
  12.5550000  30.2060000  40.2990000  12.1040000  29.8180000  38.9090000
  11.9240000  30.1410000  39.6990000  17.5210000  29.8220000  41.4630000
  17.1550000  30.4630000  42.0730000  16.7560000  29.4000000  41.0700000
  17.3760000  29.8500000  41.4900000  15.8460000  21.8520000  40.5670000
  15.9780000  21.7080000  41.5050000  14.9780000  22.2510000  40.5070000
  15.7520000  21.8840000  40.6800000   4.6080000  24.1690000  44.8400000
   4.2010000  24.1680000  43.9730000   4.1220000  24.8320000  45.3320000
   4.4940000  24.2540000  44.7930000   4.0350000  21.3560000  43.5580000
   3.2770000  21.3430000  44.1430000   4.5670000  20.6120000  43.8390000
   4.0060000  21.2590000  43.6690000   8.6950000  25.5550000  43.3890000
   7.8700000  25.5370000  42.9040000   8.4440000  25.3690000  44.2940000
   8.5570000  25.5290000  43.4430000   3.5200000  27.1770000  38.0590000
   2.9170000  27.9140000  37.9640000   4.1490000  27.4670000  38.7200000
   3.5230000  27.3080000  38.1320000   6.6700000  26.1300000  48.3340000
   7.5510000  26.4220000  48.5670000   6.7560000  25.7960000  47.4420000
   6.7940000  26.1250000  48.2500000  10.9670000  21.9490000  46.5180000
  10.0150000  21.8860000  46.5890000  11.2950000  21.2210000  47.0470000
  10.8870000  21.8480000  46.5950000  16.0960000  29.9570000  48.6400000
  16.5360000  30.4640000  49.3230000  15.4240000  29.4600000  49.1070000
  16.0670000  29.9580000  48.7870000  13.4460000  23.2740000  40.3820000
  13.5500000  23.6180000  41.2690000  13.3160000  24.0500000  39.8380000
  13.4430000  23.4170000  40.4270000  16.0880000  24.1220000  47.7090000
  17.0000000  24.1330000  48.0030000  16.0880000  23.5370000  46.9520000
  16.2050000  24.0480000  47.6500000   5.6750000  20.4480000  38.3690000
   6.0170000  20.4570000  39.2630000   5.1900000  21.2700000  38.2910000
   5.6570000  20.5550000  38.4730000   0.8440000  20.3640000  48.2730000
   1.6780000  20.8180000  48.1500000   0.2560000  20.7630000  47.6330000
   0.8760000  20.4730000  48.1770000   8.2780000  24.9590000  46.0230000
   8.3640000  24.1750000  46.5670000   8.7180000  25.6460000  46.5230000
   8.3450000  24.9470000  46.1570000  15.3740000  19.0980000  40.2380000
  15.5020000  20.0130000  39.9860000  14.4250000  19.0030000  40.3220000
  15.2690000  19.2030000  40.2170000  18.5490000  20.4360000  38.2380000
  18.3730000  21.2770000  37.8170000  17.7400000  19.9370000  38.1240000
  18.4230000  20.4800000  38.1710000  21.1180000  26.3640000  45.6170000
  21.1320000  26.0510000  46.5220000  21.0690000  27.3170000  45.6930000
  21.1140000  26.4460000  45.7430000  10.5110000  24.3000000  39.5000000
   9.8850000  23.5760000  39.5230000  10.7290000  24.4590000  40.4170000
  10.4590000  24.2280000  39.6190000  16.6830000  27.2650000  39.5000000
  16.2260000  27.0240000  40.3070000  17.6090000  27.1250000  39.6990000
  16.7430000  27.2160000  39.6300000  14.8080000  22.9820000  45.0890000
  15.5040000  22.5960000  44.5550000  14.1980000  22.2600000  45.2430000
  14.8190000  22.8400000  45.0400000  10.7090000  24.4180000  42.1630000
   9.8860000  24.7010000  42.5590000  11.3870000  24.8040000  42.7180000
  10.6910000  24.5030000  42.2850000  12.7280000  29.5190000  45.7120000
  13.2730000  30.0200000  46.3180000  12.0340000  30.1260000  45.4550000
  12.7090000  29.6600000  45.7570000   0.7110000  31.0850000  46.5320000
   1.1050000  31.0150000  45.6620000   1.3230000  30.6300000  47.1100000
   0.8400000  31.0180000  46.4940000  15.4320000  26.7650000  41.9040000
  15.3890000  27.3840000  42.6350000  15.0660000  25.9540000  42.2570000
  15.3800000  26.7410000  42.0430000  10.1820000  27.6290000  42.3830000
   9.5100000  26.9480000  42.4130000  10.2610000  27.8460000  41.4550000
  10.1060000  27.5700000  42.2680000   6.2320000  31.1220000  48.3300000
   6.1920000  30.1670000  48.2930000   5.7770000  31.3500000  49.1400000
   6.1690000  31.0290000  48.4300000  -0.1850000  26.8770000  42.1500000
   0.4800000  27.4770000  42.4880000  -1.0170000  27.3110000  42.3390000
  -0.2060000  27.0090000  42.2180000   7.5620000  30.0580000  39.4390000
   7.1790000  29.7490000  38.6170000   7.8010000  30.9690000  39.2630000
   7.5440000  30.1350000  39.3120000   1.8180000  21.5130000  45.1170000
   1.5800000  20.6940000  44.6830000   1.0570000  22.0810000  44.9890000
   1.6900000  21.4810000  45.0440000   6.3890000  20.3280000  41.1200000
   6.6340000  19.4530000  41.4220000   6.1740000  20.8050000  41.9220000
   6.3930000  20.2770000  41.2610000  11.6210000  22.0770000  43.6580000
  11.3270000  22.7920000  43.0940000  11.3500000  22.3380000  44.5380000
  11.5490000  22.2020000  43.6980000   3.2270000  24.5930000  39.1540000
   2.3020000  24.3500000  39.1920000   3.2230000  25.5130000  38.8890000
   3.1090000  24.6800000  39.1250000   5.1960000  28.9460000  42.4430000
   6.0190000  29.4320000  42.4050000   5.2470000  28.4510000  43.2600000
   5.3080000  28.9450000  42.5430000   7.4910000  30.5830000  42.4450000
   6.9680000  31.2860000  42.8320000   7.5030000  30.7790000  41.5100000
   7.4260000  30.6980000  42.3750000  14.5340000  25.4500000  38.6100000
  15.0120000  25.0970000  37.8610000  15.0360000  26.2220000  38.8720000
  14.6590000  25.5040000  38.5470000  16.3860000  16.5300000  48.0080000
  16.5320000  16.9350000  48.8630000  15.4410000  16.5980000  47.8690000
  16.2840000  16.5900000  48.1010000  12.4740000  26.6650000  45.7230000
  12.9720000  26.4580000  44.9320000  12.6580000  27.5900000  45.8870000
  12.5610000  26.7570000  45.6420000   7.0990000  25.4110000  39.4640000
   6.6180000  24.5940000  39.3320000   7.5330000  25.5700000  38.6250000
   7.0930000  25.3270000  39.3390000   1.0630000  30.4480000  39.9210000
   1.8300000  30.1250000  40.3970000   0.3210000  30.2090000  40.4760000
   1.0660000  30.3760000  40.0530000   9.7950000  27.2610000  46.3450000
   9.3880000  28.0210000  45.9300000  10.6570000  27.1960000  45.9350000
   9.8530000  27.3500000  46.2390000  14.3320000  28.5000000  43.8270000
  15.0060000  28.9120000  44.3680000  13.5220000  28.9460000  44.0730000
  14.3150000  28.6100000  43.9280000   2.4860000  28.9910000  47.3300000
   3.4430000  28.9750000  47.3120000   2.2410000  28.1770000  47.7700000
   2.5770000  28.8850000  47.3850000  11.3280000  24.4770000  47.6800000
  11.9540000  24.9270000  47.1130000  11.1860000  23.6300000  47.2550000
  11.3900000  24.4260000  47.5530000   3.8870000  24.5150000  42.1530000
   3.7970000  24.2440000  41.2390000   2.9890000  24.6720000  42.4450000
   3.7600000  24.5010000  42.0730000  13.4740000  20.4060000  44.9480000
  12.8120000  20.8120000  44.3880000  14.1690000  20.1430000  44.3450000
  13.4780000  20.4250000  44.8000000   5.8330000  27.4310000  44.5530000
   6.0210000  26.6790000  43.9900000   6.6890000  27.8220000  44.7230000
   5.9660000  27.3850000  44.5030000   4.4800000  19.3010000  46.7120000
   4.6510000  20.2220000  46.9100000   5.0460000  18.8170000  47.3120000
   4.5740000  19.3570000  46.8140000   5.3340000  28.4280000  47.1050000
   5.5910000  28.0100000  46.2820000   5.4180000  27.7360000  47.7600000
   5.3780000  28.2860000  47.0830000   9.7050000  28.4050000  39.7630000
  10.4350000  29.0250000  39.7530000   8.9230000  28.9560000  39.7320000
   9.6980000  28.5550000  39.7570000   9.3370000  25.7860000  48.8800000
   8.8880000  25.0320000  49.2620000  10.0590000  25.4060000  48.3800000
   9.3720000  25.6410000  48.8640000   6.3600000  22.5230000  42.8630000
   6.2120000  23.4660000  42.7840000   5.5680000  22.1910000  43.2870000
   6.2400000  22.6010000  42.9070000   5.6160000  23.0120000  39.4570000
   4.6990000  22.7970000  39.6230000   6.0910000  22.6240000  40.1920000
   5.5590000  22.9350000  39.5720000  11.3230000  28.2000000  48.6780000
  11.0550000  28.8430000  49.3350000  10.5240000  28.0180000  48.1820000
  11.1860000  28.2590000  48.6980000   1.2210000  24.7390000  43.3400000
   1.6210000  25.3240000  43.9850000   0.7570000  25.3240000  42.7420000
   1.2130000  24.8890000  43.3470000   3.1810000  19.4180000  39.3850000
   3.1820000  20.1600000  39.9890000   3.6850000  19.7220000  38.6320000
   3.2460000  19.5520000  39.3670000   1.6110000  26.6750000  48.5280000
   0.8320000  27.1810000  48.7600000   1.3490000  25.7620000  48.6520000
   1.4780000  26.6230000  48.5730000   4.7070000  30.8320000  45.6350000
   4.6200000  31.6120000  46.1830000   4.7790000  30.1080000  46.2570000
   4.7050000  30.8390000  45.7840000   0.3380000  21.9160000  40.8390000
   0.2810000  21.6620000  39.9180000  -0.2100000  22.6980000  40.9070000
   0.2610000  21.9840000  40.7300000   5.8910000  19.4890000  44.2700000
   5.4860000  19.1580000  45.0730000   5.9980000  18.7150000  43.7180000
   5.8530000  19.3480000  44.3030000   6.4340000  25.5350000  42.1570000
   6.8070000  25.4700000  41.2780000   5.5290000  25.2390000  42.0550000
   6.3660000  25.4880000  42.0320000   8.5790000  22.4320000  44.5410000
   7.7270000  22.2940000  44.1300000   8.6290000  23.3790000  44.6780000
   8.4770000  22.5360000  44.5070000   9.6240000  26.1030000  37.7800000
   9.6050000  26.7530000  38.4820000   9.9790000  25.3150000  38.1920000
   9.6670000  26.0860000  37.9220000   9.2970000  20.6060000  42.6320000
   9.0720000  21.3910000  43.1320000  10.1960000  20.7580000  42.3400000
   9.3840000  20.7260000  42.6590000  14.7240000  20.3260000  47.5030000
  15.5950000  19.9330000  47.5590000  14.6250000  20.5570000  46.5800000
  14.8230000  20.3050000  47.3920000  14.7490000  24.1910000  42.7500000
  14.5280000  23.9410000  43.6480000  15.5650000  23.7250000  42.5680000
  14.8250000  24.0990000  42.8430000   8.5520000  22.7410000  47.9180000
   7.7010000  22.3100000  47.8300000   8.6510000  22.8880000  48.8580000
   8.4550000  22.7050000  48.0270000  17.4400000  24.2150000  40.5870000
  16.6170000  23.7280000  40.5380000  17.1880000  25.0790000  40.9150000
  17.3030000  24.2630000  40.6220000   2.5270000  22.8960000  47.5320000
   2.4330000  22.4290000  46.7020000   3.3500000  22.5730000  47.8970000
   2.6200000  22.7950000  47.4730000   1.8850000  28.6530000  42.8170000
   2.8410000  28.6850000  42.8430000   1.6140000  29.5700000  42.8550000
   1.9730000  28.7740000  42.8250000   3.2440000  21.9430000  40.7870000
   3.5520000  22.0080000  41.6920000   2.3260000  21.6850000  40.8670000
   3.1660000  21.9180000  40.9130000  12.5530000  26.2040000  43.1720000
  13.1730000  26.6480000  42.5930000  11.7430000  26.7080000  43.0870000
  12.5290000  26.3260000  43.0870000   8.2640000  28.6670000  44.5440000
   8.7780000  28.0670000  44.0050000   7.9900000  29.3570000  43.9400000
   8.2940000  28.6780000  44.3980000  18.3210000  23.2320000  44.5890000
  18.9030000  23.7170000  44.0030000  17.7550000  23.9020000  44.9730000
  18.3230000  23.3800000  44.5640000   6.0400000  22.0510000  46.4550000
   5.8620000  22.6410000  45.7230000   6.5250000  21.3240000  46.0650000
   6.0790000  22.0340000  46.3120000  -0.3550000  28.6410000  45.0320000
   0.2420000  28.8970000  44.3280000  -0.0520000  29.1360000  45.7940000
  -0.2400000  28.7370000  45.0400000  16.0140000  29.7380000  45.8180000
  16.8670000  29.3970000  45.5480000  16.0360000  29.7090000  46.7750000
  16.1260000  29.6900000  45.9050000  18.0900000  19.7640000  45.3270000
  17.4940000  19.4140000  45.9880000  18.8080000  19.1320000  45.2910000
  18.1060000  19.6390000  45.4070000  14.1600000  30.4090000  41.0330000
  14.5560000  30.7500000  41.8350000  14.6510000  30.8280000  40.3270000
  14.2730000  30.5060000  41.0460000   6.4660000  21.4360000  32.4540000
   6.6940000  21.4080000  33.3830000   5.8370000  20.7240000  32.3410000
   6.4150000  21.3410000  32.5590000   4.3820000  19.7220000  31.9600000
   3.8220000  20.1700000  32.5940000   4.2360000  18.7910000  32.1270000
   4.2920000  19.6600000  32.0620000   5.2010000  27.9630000  21.2080000
   5.0470000  28.4200000  22.0350000   5.9130000  27.3530000  21.4000000
   5.2720000  27.9430000  21.3380000   8.5960000  23.1720000  31.8130000
   7.9930000  22.5310000  32.1880000   9.3850000  23.1030000  32.3510000
   8.6200000  23.0820000  31.9300000   9.1340000  19.6090000  38.0910000
  10.0260000  19.3800000  37.8270000   8.6120000  19.4880000  37.2980000
   9.1820000  19.5650000  37.9570000  11.0190000  22.9980000  33.0820000
  11.1970000  22.1160000  33.4070000  11.3380000  23.5780000  33.7730000
  11.0830000  22.9590000  33.2120000  16.4590000  21.6260000  24.5800000
  16.5270000  20.6790000  24.4560000  17.3280000  21.8910000  24.8810000
  16.5790000  21.5390000  24.6030000  17.5780000  25.9170000  26.4210000
  16.7990000  26.0270000  26.9660000  17.9220000  26.8030000  26.3120000
  17.5220000  26.0440000  26.4770000   8.6740000  22.0450000  20.5690000
   8.4080000  21.5820000  21.3640000   8.6900000  21.3680000  19.8930000
   8.6420000  21.8990000  20.5850000   8.9090000  29.2330000  33.8530000
   8.7810000  28.3680000  34.2420000   9.3520000  29.0580000  33.0220000
   8.9490000  29.1000000  33.7960000  11.7850000  30.1850000  20.8720000
  12.5550000  30.2060000  21.4390000  12.1040000  29.8180000  20.0480000
  11.9240000  30.1410000  20.8390000  17.5210000  29.8220000  22.6020000
  17.1550000  30.4630000  23.2120000  16.7560000  29.4000000  22.2100000
  17.3760000  29.8500000  22.6300000   0.0330000  23.5630000  32.4100000
   0.3100000  24.1320000  33.1280000  -0.5690000  22.9400000  32.8170000
  -0.0080000  23.5560000  32.5540000   0.9060000  29.9000000  35.0030000
  -0.0150000  29.6800000  34.8630000   0.9860000  30.0070000  35.9500000
   0.7980000  29.8850000  35.1060000  15.8460000  21.8520000  21.7070000
  15.9780000  21.7080000  22.6440000  14.9780000  22.2510000  21.6470000
  15.7520000  21.8840000  21.8200000   4.6080000  24.1690000  25.9800000
   4.2010000  24.1680000  25.1130000   4.1220000  24.8320000  26.4710000
   4.4940000  24.2540000  25.9320000   2.7270000  20.5650000  33.9980000
   2.9340000  21.4630000  34.2550000   2.3710000  20.1640000  34.7910000
   2.7080000  20.6280000  34.1320000   4.0350000  21.3560000  24.6980000
   3.2770000  21.3430000  25.2830000   4.5670000  20.6120000  24.9790000
   4.0060000  21.2590000  24.8090000  11.0750000  25.0540000  34.9970000
  11.6610000  25.3670000  35.6860000  10.3490000  25.6790000  34.9970000
  11.0570000  25.1740000  35.0850000   8.6950000  25.5550000  24.5290000
   7.8700000  25.5370000  24.0440000   8.4440000  25.3690000  25.4340000
   8.5570000  25.5290000  24.5830000   0.5960000  23.5670000  38.0510000
   0.3980000  23.6480000  37.1190000  -0.1980000  23.8700000  38.4920000
   0.4690000  23.6160000  37.9880000   3.5200000  27.1770000  19.1990000
   2.9170000  27.9140000  19.1030000   4.1490000  27.4670000  19.8600000
   3.5230000  27.3080000  19.2710000   6.6700000  26.1300000  29.4740000
   7.5510000  26.4220000  29.7060000   6.7560000  25.7960000  28.5810000
   6.7940000  26.1250000  29.3890000  10.9670000  21.9490000  27.6580000
  10.0150000  21.8860000  27.7290000  11.2950000  21.2210000  28.1860000
  10.8870000  21.8480000  27.7350000  16.0960000  29.9570000  29.7800000
  16.5360000  30.4640000  30.4630000  15.4240000  29.4600000  30.2460000
  16.0670000  29.9580000  29.9270000   6.6160000  29.4780000  36.8440000
   6.4590000  28.5340000  36.8080000   6.5270000  29.7700000  35.9370000
   6.5840000  29.3940000  36.7230000  13.4460000  23.2740000  21.5220000
  13.5500000  23.6180000  22.4090000  13.3160000  24.0500000  20.9770000
  13.4430000  23.4170000  21.5660000  16.0880000  24.1220000  28.8490000
  17.0000000  24.1330000  29.1420000  16.0880000  23.5370000  28.0910000
  16.2050000  24.0480000  28.7900000  13.9330000  28.4590000  30.7000000
  13.0580000  28.2020000  30.4100000  14.2850000  27.6760000  31.1240000
  13.8660000  28.3260000  30.7170000   5.6750000  20.4480000  19.5090000
   6.0170000  20.4570000  20.4030000   5.1900000  21.2700000  19.4310000
   5.6570000  20.5550000  19.6130000   0.8440000  20.3640000  29.4130000
   1.6780000  20.8180000  29.2890000   0.2560000  20.7630000  28.7730000
   0.8760000  20.4730000  29.3160000   1.9430000  19.4970000  36.4250000
   1.1100000  19.0700000  36.6260000   1.9100000  20.3240000  36.9050000
   1.8320000  19.5480000  36.5120000   8.2780000  24.9590000  27.1630000
   8.3640000  24.1750000  27.7060000   8.7180000  25.6460000  27.6630000
   8.3450000  24.9470000  27.2960000  16.9400000  22.5770000  36.5030000
  16.0410000  22.2490000  36.4980000  17.2650000  22.4000000  35.6210000
  16.8660000  22.5120000  36.3900000  15.3740000  19.0980000  21.3770000
  15.5020000  20.0130000  21.1250000  14.4250000  19.0030000  21.4620000
  15.2690000  19.2030000  21.3560000  18.5490000  20.4360000  19.3780000
  18.3730000  21.2770000  18.9570000  17.7400000  19.9370000  19.2640000
  18.4230000  20.4800000  19.3100000  21.1180000  26.3640000  26.7560000
  21.1320000  26.0510000  27.6610000  21.0690000  27.3170000  26.8330000
  21.1140000  26.4460000  26.8820000  10.5110000  24.3000000  20.6390000
   9.8850000  23.5760000  20.6630000  10.7290000  24.4590000  21.5570000
  10.4590000  24.2280000  20.7590000   7.2490000  25.9480000  32.7600000
   6.4040000  25.6280000  33.0760000   7.7220000  25.1570000  32.5000000
   7.2010000  25.8060000  32.7670000   4.1760000  31.1340000  37.0930000
   4.9870000  30.6460000  36.9510000   3.9070000  31.4110000  36.2170000
   4.2450000  31.1070000  36.9620000  16.9770000  21.8150000  33.9340000
  16.1110000  21.6510000  33.5630000  17.5590000  21.2230000  33.4570000
  16.9410000  21.7180000  33.8250000  16.6830000  27.2650000  20.6400000
  16.2260000  27.0240000  21.4460000  17.6090000  27.1250000  20.8390000
  16.7430000  27.2160000  20.7690000   6.4380000  30.1740000  34.1210000
   7.3180000  29.8010000  34.0690000   5.9000000  29.5930000  33.5840000
   6.4820000  30.0520000  34.0460000  14.8080000  22.9820000  26.2280000
  15.5040000  22.5960000  25.6950000  14.1980000  22.2600000  26.3830000
  14.8190000  22.8400000  26.1790000  12.8820000  28.4310000  33.7700000
  12.3250000  28.0370000  33.0980000  12.3060000  29.0410000  34.2300000
  12.7370000  28.4590000  33.7430000  16.7960000  27.6920000  36.9640000
  15.9730000  28.0320000  36.6150000  16.6520000  27.6360000  37.9090000
  16.6730000  27.7280000  37.0410000  10.7090000  24.4180000  23.3030000
   9.8860000  24.7010000  23.6990000  11.3870000  24.8040000  23.8580000
  10.6910000  24.5030000  23.4250000   3.7210000  28.0090000  31.3960000
   3.3440000  27.8820000  32.2660000   3.1580000  27.4980000  30.8140000
   3.6010000  27.9280000  31.4330000  12.7280000  29.5190000  26.8510000
  13.2730000  30.0200000  27.4580000  12.0340000  30.1260000  26.5940000
  12.7090000  29.6600000  26.8960000   0.7110000  31.0850000  27.6720000
   1.1050000  31.0150000  26.8020000   1.3230000  30.6300000  28.2490000
   0.8400000  31.0180000  27.6340000  15.4320000  26.7650000  23.0440000
  15.3890000  27.3840000  23.7740000  15.0660000  25.9540000  23.3960000
  15.3800000  26.7410000  23.1830000  10.1820000  27.6290000  23.5230000
   9.5100000  26.9480000  23.5530000  10.2610000  27.8460000  22.5940000
  10.1060000  27.5700000  23.4080000   3.8690000  22.4820000  37.4860000
   3.7160000  22.7620000  36.5840000   3.6320000  23.2420000  38.0170000
   3.8190000  22.6150000  37.4390000   5.8020000  26.6030000  36.5920000
   5.6870000  26.3190000  35.6850000   4.9110000  26.7060000  36.9250000
   5.6730000  26.5800000  36.5180000   4.8470000  24.9300000  31.4380000
   4.2570000  24.1910000  31.2860000   5.4590000  24.9020000  30.7030000
   4.8500000  24.8320000  31.3240000   6.2320000  31.1220000  29.4700000
   6.1920000  30.1670000  29.4330000   5.7770000  31.3500000  30.2800000
   6.1690000  31.0290000  29.5690000  14.1970000  27.7750000  36.1520000
  13.5060000  27.1350000  36.3200000  13.9890000  28.1310000  35.2890000
  14.0820000  27.7380000  36.0630000  -0.1850000  26.8770000  23.2890000
   0.4800000  27.4770000  23.6270000  -1.0170000  27.3110000  23.4780000
  -0.2060000  27.0090000  23.3570000   7.5620000  30.0580000  20.5780000
   7.1790000  29.7490000  19.7570000   7.8010000  30.9690000  20.4030000
   7.5440000  30.1350000  20.4510000   1.8180000  21.5130000  26.2560000
   1.5800000  20.6940000  25.8220000   1.0570000  22.0810000  26.1300000
   1.6900000  21.4810000  26.1840000   6.3890000  20.3280000  22.2600000
   6.6340000  19.4530000  22.5610000   6.1740000  20.8050000  23.0610000
   6.3930000  20.2770000  22.4010000  11.6210000  22.0770000  24.7980000
  11.3270000  22.7920000  24.2340000  11.3500000  22.3380000  25.6780000
  11.5490000  22.2020000  24.8380000   3.2270000  24.5930000  20.2940000
   2.3020000  24.3500000  20.3320000   3.2230000  25.5130000  20.0290000
   3.1090000  24.6800000  20.2650000   5.1960000  28.9460000  23.5830000
   6.0190000  29.4320000  23.5450000   5.2470000  28.4510000  24.4000000
   5.3080000  28.9450000  23.6820000   7.4910000  30.5830000  23.5850000
   6.9680000  31.2860000  23.9710000   7.5030000  30.7790000  22.6490000
   7.4260000  30.6980000  23.5150000  14.5340000  25.4500000  19.7490000
  15.0120000  25.0970000  19.0000000  15.0360000  26.2220000  20.0120000
  14.6590000  25.5040000  19.6870000   3.4280000  30.8860000  34.5790000
   3.3900000  31.2030000  33.6780000   2.5560000  30.5270000  34.7440000
   3.3110000  30.8800000  34.4860000  16.3860000  16.5300000  29.1480000
  16.5320000  16.9350000  30.0030000  15.4410000  16.5980000  29.0090000
  16.2840000  16.5900000  29.2400000   6.3620000  28.5830000  31.6330000
   6.6870000  27.7800000  32.0400000   5.4930000  28.3510000  31.3070000
   6.2920000  28.4510000  31.6430000   1.9780000  29.5170000  37.6020000
   2.7810000  30.0270000  37.4920000   1.5280000  29.9350000  38.3370000
   2.0230000  29.6360000  37.6820000  12.4740000  26.6650000  26.8620000
  12.9720000  26.4580000  26.0710000  12.6580000  27.5900000  27.0260000
  12.5610000  26.7570000  26.7820000   7.0990000  25.4110000  20.6030000
   6.6180000  24.5940000  20.4720000   7.5330000  25.5700000  19.7650000
   7.0930000  25.3270000  20.4790000   1.0630000  30.4480000  21.0610000
   1.8300000  30.1250000  21.5360000   0.3210000  30.2090000  21.6160000
   1.0660000  30.3760000  21.1930000   0.4010000  24.2040000  29.7570000
   1.1990000  23.8540000  29.3620000   0.3810000  23.8240000  30.6350000
   0.5000000  24.1100000  29.8190000   9.7950000  27.2610000  27.4850000
   9.3880000  28.0210000  27.0690000  10.6570000  27.1960000  27.0750000
   9.8530000  27.3500000  27.3800000  14.3320000  28.5000000  24.9670000
  15.0060000  28.9120000  25.5070000  13.5220000  28.9460000  25.2130000
  14.3150000  28.6100000  25.0670000   2.4860000  28.9910000  28.4700000
   3.4430000  28.9750000  28.4510000   2.2410000  28.1770000  28.9100000
   2.5770000  28.8850000  28.5240000  12.7890000  23.0010000  31.0090000
  12.3350000  23.4430000  30.2910000  12.2470000  23.1760000  31.7780000
  12.6620000  23.0800000  31.0150000  17.9540000  27.9290000  29.9530000
  17.5650000  27.4550000  30.6890000  17.4190000  28.7180000  29.8670000
  17.8360000  27.9690000  30.0360000  11.3280000  24.4770000  28.8190000
  11.9540000  24.9270000  28.2520000  11.1860000  23.6300000  28.3950000
  11.3900000  24.4260000  28.6920000  11.3520000  21.2220000  21.5750000
  10.5930000  21.4700000  21.0470000  11.9070000  22.0020000  21.5760000
  11.3260000  21.3540000  21.5080000   3.8870000  24.5150000  23.2920000
   3.7970000  24.2440000  22.3790000   2.9890000  24.6720000  23.5850000
   3.7600000  24.5010000  23.2130000  13.4740000  20.4060000  26.0880000
  12.8120000  20.8120000  25.5280000  14.1690000  20.1430000  25.4850000
  13.4780000  20.4250000  25.9390000  15.0870000  25.6380000  31.4670000
  14.8220000  24.9860000  32.1170000  15.3060000  25.1250000  30.6890000
  15.0810000  25.4890000  31.4510000   5.8330000  27.4310000  25.6920000
   6.0210000  26.6790000  25.1300000   6.6890000  27.8220000  25.8620000
   5.9660000  27.3850000  25.6420000   7.4890000  22.2910000  34.9320000
   8.4110000  22.3670000  35.1760000   7.0370000  22.9080000  35.5070000
   7.5490000  22.3790000  35.0360000   4.4800000  19.3010000  27.8510000
   4.6510000  20.2220000  28.0500000   5.0460000  18.8170000  28.4520000
   4.5740000  19.3570000  27.9530000   5.3340000  28.4280000  28.2440000
   5.5910000  28.0100000  27.4220000   5.4180000  27.7360000  28.9000000
   5.3780000  28.2860000  28.2230000  16.1400000  19.1670000  37.6670000
  15.5990000  18.6520000  38.2660000  15.6760000  20.0000000  37.5800000
  16.0120000  19.2080000  37.7330000  17.5090000  26.7180000  32.8650000
  16.6130000  26.3930000  32.7780000  17.4090000  27.6130000  33.1900000
  17.3810000  26.7910000  32.8960000   9.7050000  28.4050000  20.9030000
  10.4350000  29.0250000  20.8920000   8.9230000  28.9560000  20.8720000
   9.6980000  28.5550000  20.8970000   9.3370000  25.7860000  30.0190000
   8.8880000  25.0320000  30.4010000  10.0590000  25.4060000  29.5190000
   9.3720000  25.6410000  30.0050000  10.8720000  29.9100000  31.7310000
  10.5960000  30.7340000  32.1330000  11.8230000  29.8970000  31.8400000
  10.9590000  30.0140000  31.7960000   6.3600000  22.5230000  24.0020000
   6.2120000  23.4660000  23.9240000   5.5680000  22.1910000  24.4260000
   6.2400000  22.6010000  24.0460000  10.0110000  22.8670000  36.4210000
   9.5450000  23.4650000  37.0050000  10.6060000  23.4310000  35.9260000
  10.0270000  23.0150000  36.4320000   5.6160000  23.0120000  20.5970000
   4.6990000  22.7970000  20.7630000   6.0910000  22.6240000  21.3320000
   5.5590000  22.9350000  20.7120000   2.2580000  27.7580000  33.8680000
   1.5790000  28.3970000  34.0880000   1.8490000  26.9090000  34.0320000
   2.1180000  27.7310000  33.9170000   0.4060000  20.6670000  32.4500000
   1.2680000  20.6280000  32.8640000   0.5920000  20.8170000  31.5230000
   0.5400000  20.6810000  32.3840000  11.3230000  28.2000000  29.8170000
  11.0550000  28.8430000  30.4740000  10.5240000  28.0180000  29.3210000
  11.1860000  28.2590000  29.8370000  -0.1350000  25.8380000  36.4370000
  -0.7350000  26.5710000  36.5780000   0.4120000  25.8210000  37.2230000
  -0.1420000  25.9300000  36.5570000   1.2210000  24.7390000  24.4800000
   1.6210000  25.3240000  25.1240000   0.7570000  25.3240000  23.8810000
   1.2130000  24.8890000  24.4860000  11.3000000  26.5340000  32.3800000
  11.1370000  26.8430000  31.4880000  10.4390000  26.2700000  32.7020000
  11.1690000  26.5400000  32.3070000  11.5220000  20.7550000  36.5170000
  11.5190000  20.4650000  35.6050000  10.8500000  21.4360000  36.5540000
  11.4350000  20.8050000  36.4050000   3.1810000  19.4180000  20.5250000
   3.1820000  20.1600000  21.1290000   3.6850000  19.7220000  19.7710000
   3.2460000  19.5520000  20.5060000  11.2320000  30.1970000  34.9160000
  10.4140000  30.0410000  34.4440000  11.2800000  31.1490000  35.0050000
  11.1340000  30.2990000  34.8670000  15.5820000  24.8930000  36.1460000
  16.2950000  24.2610000  36.2420000  16.0220000  25.7300000  36.0000000
  15.7290000  24.9190000  36.1390000   1.6110000  26.6750000  29.6680000
   0.8320000  27.1810000  29.8990000   1.3490000  25.7620000  29.7910000
   1.4780000  26.6230000  29.7130000   4.7070000  30.8320000  26.7740000
   4.6200000  31.6120000  27.3230000   4.7790000  30.1080000  27.3970000
   4.7050000  30.8390000  26.9240000   0.3380000  21.9160000  21.9790000
   0.2810000  21.6620000  21.0580000  -0.2100000  22.6980000  22.0470000
   0.2610000  21.9840000  21.8700000   4.8090000  25.9730000  33.9580000
   4.7180000  25.8530000  33.0130000   4.0850000  26.5510000  34.1960000
   4.7050000  26.0320000  33.8670000   5.8910000  19.4890000  25.4100000
   5.4860000  19.1580000  26.2120000   5.9980000  18.7150000  24.8580000
   5.8530000  19.3480000  25.4420000   6.4340000  25.5350000  23.2960000
   6.8070000  25.4700000  22.4170000   5.5290000  25.2390000  23.1950000
   6.3660000  25.4880000  23.1710000   8.5790000  22.4320000  25.6810000
   7.7270000  22.2940000  25.2690000   8.6290000  23.3790000  25.8170000
   8.4770000  22.5360000  25.6460000   3.4510000  23.1000000  34.8720000
   4.2420000  23.1330000  34.3350000   3.0910000  23.9860000  34.8240000
   3.5060000  23.2170000  34.7970000   9.6240000  26.1030000  18.9200000
   9.6050000  26.7530000  19.6220000   9.9790000  25.3150000  19.3320000
   9.6670000  26.0860000  19.0620000  14.6070000  21.3530000  36.3410000
  14.6680000  21.0060000  35.4510000  13.6670000  21.4010000  36.5160000
  14.4940000  21.3150000  36.2490000   9.2970000  20.6060000  23.7720000
   9.0720000  21.3910000  24.2710000  10.1960000  20.7580000  23.4800000
   9.3840000  20.7260000  23.7990000  14.7240000  20.3260000  28.6420000
  15.5950000  19.9330000  28.6990000  14.6250000  20.5570000  27.7190000
  14.8230000  20.3050000  28.5310000  11.6320000  20.5930000  33.7760000
  11.3720000  19.8170000  33.2790000  12.5880000  20.5980000  33.7280000
  11.7210000  20.4940000  33.7070000  14.7490000  24.1910000  23.8900000
  14.5280000  23.9410000  24.7880000  15.5650000  23.7250000  23.7070000
  14.8250000  24.0990000  23.9820000   8.5520000  22.7410000  29.0570000
   7.7010000  22.3100000  28.9700000   8.6510000  22.8880000  29.9980000
   8.4550000  22.7050000  29.1660000   7.1830000  19.7620000  36.2080000
   6.6300000  20.0730000  36.9240000   7.2440000  20.5080000  35.6110000
   7.1200000  19.8970000  36.2230000  17.4400000  24.2150000  21.7260000
  16.6170000  23.7280000  21.6780000  17.1880000  25.0790000  22.0540000
  17.3030000  24.2630000  21.7620000  14.4970000  31.5480000  35.7450000
  13.8570000  31.0150000  36.2170000  14.4590000  31.2250000  34.8440000
  14.4100000  31.4380000  35.6900000   2.5270000  22.8960000  28.6710000
   2.4330000  22.4290000  27.8410000   3.3500000  22.5730000  29.0360000
   2.6200000  22.7950000  28.6120000  17.1640000  29.3850000  33.5620000
  16.2730000  29.6010000  33.8400000  17.4410000  30.1380000  33.0410000
  17.0850000  29.5090000  33.5320000   4.6900000  22.1540000  29.9270000
   5.1420000  21.5750000  30.5410000   5.2530000  22.1690000  29.1540000
   4.8200000  22.0820000  29.9070000   1.2720000  25.2540000  34.1960000
   0.7060000  25.6150000  33.5140000   0.7760000  25.3700000  35.0070000
   1.1360000  25.3150000  34.2120000  14.5910000  30.4240000  33.3460000
  13.9810000  29.6880000  33.4020000  14.1590000  31.0480000  32.7630000
  14.4580000  30.4090000  33.2790000   3.6890000  31.0120000  31.7710000
   3.2280000  31.3560000  31.0060000   3.7700000  30.0740000  31.5990000
   3.6400000  30.9360000  31.6510000   1.8850000  28.6530000  23.9560000
   2.8410000  28.6850000  23.9830000   1.6140000  29.5700000  23.9940000
   1.9730000  28.7740000  23.9640000   6.7250000  24.1120000  36.8990000
   5.9600000  23.7150000  37.3170000   6.4710000  25.0230000  36.7510000
   6.5940000  24.1780000  36.9340000   3.2440000  21.9430000  21.9270000
   3.5520000  22.0080000  22.8310000   2.3260000  21.6850000  22.0060000
   3.1660000  21.9180000  22.0530000  12.5530000  26.2040000  24.3110000
  13.1730000  26.6480000  23.7320000  11.7430000  26.7080000  24.2260000
  12.5290000  26.3260000  24.2260000   8.2640000  28.6670000  25.6840000
   8.7780000  28.0670000  25.1440000   7.9900000  29.3570000  25.0800000
   8.2940000  28.6780000  25.5380000  14.3060000  21.8960000  33.2430000
  14.0190000  22.7220000  33.6350000  14.0830000  21.9800000  32.3160000
  14.2400000  22.0130000  33.1750000  18.3210000  23.2320000  25.7290000
  18.9030000  23.7170000  25.1430000  17.7550000  23.9020000  26.1120000
  18.3230000  23.3800000  25.7030000  12.7000000  30.0080000  37.0370000
  11.8890000  30.0460000  36.5300000  13.0640000  29.1450000  36.8420000
  12.6430000  29.9030000  36.9470000   6.0400000  22.0510000  27.5950000
   5.8620000  22.6410000  26.8630000   6.5250000  21.3240000  27.2050000
   6.0790000  22.0340000  27.4520000  -0.3550000  28.6410000  26.1720000
   0.2420000  28.8970000  25.4680000  -0.0520000  29.1360000  26.9340000
  -0.2400000  28.7370000  26.1790000  16.0140000  29.7380000  26.9580000
  16.8670000  29.3970000  26.6880000  16.0360000  29.7090000  27.9140000
  16.1260000  29.6900000  27.0450000   8.9440000  26.6490000  34.8630000
   8.1900000  26.3190000  34.3740000   8.7430000  26.4510000  35.7770000
   8.8220000  26.5810000  34.9170000  12.4940000  25.9720000  36.9320000
  11.7100000  25.9330000  37.4800000  13.1310000  25.4210000  37.3860000
  12.4750000  25.8970000  37.0600000  18.0900000  19.7640000  26.4660000
  17.4940000  19.4140000  27.1280000  18.8080000  19.1320000  26.4310000
  18.1060000  19.6390000  26.5460000  13.8890000  24.4950000  34.1350000
  14.5820000  24.6890000  34.7670000  13.2530000  25.2010000  34.2530000
  13.8960000  24.6100000  34.2310000   6.4660000  21.4360000  13.5940000
   6.6940000  21.4080000  14.5230000   5.8370000  20.7240000  13.4810000
   6.4150000  21.3410000  13.6990000   4.3820000  19.7220000  13.1000000
   3.8220000  20.1700000  13.7340000   4.2360000  18.7910000  13.2670000
   4.2920000  19.6600000  13.2020000   5.2010000  27.9630000   2.3480000
   5.0470000  28.4200000   3.1750000   5.9130000  27.3530000   2.5400000
   5.2720000  27.9430000   2.4780000   8.5960000  23.1720000  12.9530000
   7.9930000  22.5310000  13.3280000   9.3850000  23.1030000  13.4910000
   8.6200000  23.0820000  13.0700000  11.0190000  22.9980000  14.2210000
  11.1970000  22.1160000  14.5470000  11.3380000  23.5780000  14.9130000
  11.0830000  22.9590000  14.3520000  16.4590000  21.6260000   5.7200000
  16.5270000  20.6790000   5.5960000  17.3280000  21.8910000   6.0210000
  16.5790000  21.5390000   5.7430000  17.5780000  25.9170000   7.5610000
  16.7990000  26.0270000   8.1060000  17.9220000  26.8030000   7.4520000
  17.5220000  26.0440000   7.6170000   8.6740000  22.0450000   1.7090000
   8.4080000  21.5820000   2.5040000   8.6900000  21.3680000   1.0330000
   8.6420000  21.8990000   1.7250000   8.9090000  29.2330000  14.9930000
   8.7810000  28.3680000  15.3820000   9.3520000  29.0580000  14.1620000
   8.9490000  29.1000000  14.9360000  11.7850000  30.1850000   2.0120000
  12.5550000  30.2060000   2.5790000  12.1040000  29.8180000   1.1880000
  11.9240000  30.1410000   1.9790000  17.5210000  29.8220000   3.7420000
  17.1550000  30.4630000   4.3520000  16.7560000  29.4000000   3.3500000
  17.3760000  29.8500000   3.7700000   0.0330000  23.5630000  13.5500000
   0.3100000  24.1320000  14.2680000  -0.5690000  22.9400000  13.9570000
  -0.0080000  23.5560000  13.6940000   0.9060000  29.9000000  16.1430000
  -0.0150000  29.6800000  16.0030000   0.9860000  30.0070000  17.0900000
   0.7980000  29.8850000  16.2460000  15.8460000  21.8520000   2.8470000
  15.9780000  21.7080000   3.7840000  14.9780000  22.2510000   2.7870000
  15.7520000  21.8840000   2.9600000   4.6080000  24.1690000   7.1200000
   4.2010000  24.1680000   6.2530000   4.1220000  24.8320000   7.6110000
   4.4940000  24.2540000   7.0720000   2.7270000  20.5650000  15.1380000
   2.9340000  21.4630000  15.3950000   2.3710000  20.1640000  15.9310000
   2.7080000  20.6280000  15.2720000   4.0350000  21.3560000   5.8380000
   3.2770000  21.3430000   6.4230000   4.5670000  20.6120000   6.1190000
   4.0060000  21.2590000   5.9490000  11.0750000  25.0540000  16.1370000
  11.6610000  25.3670000  16.8260000  10.3490000  25.6790000  16.1370000
  11.0570000  25.1740000  16.2250000   8.6950000  25.5550000   5.6690000
   7.8700000  25.5370000   5.1840000   8.4440000  25.3690000   6.5740000
   8.5570000  25.5290000   5.7230000   0.5960000  23.5670000  19.1910000
   0.3980000  23.6480000  18.2600000  -0.1980000  23.8700000  19.6320000
   0.4690000  23.6160000  19.1280000   3.5200000  27.1770000   0.3390000
   2.9170000  27.9140000   0.2430000   4.1490000  27.4670000   1.0000000
   3.5230000  27.3080000   0.4110000   6.6700000  26.1300000  10.6140000
   7.5510000  26.4220000  10.8460000   6.7560000  25.7960000   9.7210000
   6.7940000  26.1250000  10.5290000  10.9670000  21.9490000   8.7980000
  10.0150000  21.8860000   8.8690000  11.2950000  21.2210000   9.3260000
  10.8870000  21.8480000   8.8750000  16.0960000  29.9570000  10.9200000
  16.5360000  30.4640000  11.6030000  15.4240000  29.4600000  11.3860000
  16.0670000  29.9580000  11.0670000   6.6160000  29.4780000  17.9840000
   6.4590000  28.5340000  17.9480000   6.5270000  29.7700000  17.0770000
   6.5840000  29.3940000  17.8630000  13.4460000  23.2740000   2.6620000
  13.5500000  23.6180000   3.5490000  13.3160000  24.0500000   2.1170000
  13.4430000  23.4170000   2.7060000  16.0880000  24.1220000   9.9890000
  17.0000000  24.1330000  10.2820000  16.0880000  23.5370000   9.2310000
  16.2050000  24.0480000   9.9300000  13.9330000  28.4590000  11.8400000
  13.0580000  28.2020000  11.5500000  14.2850000  27.6760000  12.2640000
  13.8660000  28.3260000  11.8570000   5.6750000  20.4480000   0.6490000
   6.0170000  20.4570000   1.5430000   5.1900000  21.2700000   0.5710000
   5.6570000  20.5550000   0.7530000   0.8440000  20.3640000  10.5530000
   1.6780000  20.8180000  10.4290000   0.2560000  20.7630000   9.9130000
   0.8760000  20.4730000  10.4560000   8.2780000  24.9590000   8.3030000
   8.3640000  24.1750000   8.8460000   8.7180000  25.6460000   8.8030000
   8.3450000  24.9470000   8.4360000  16.9400000  22.5770000  17.6430000
  16.0410000  22.2490000  17.6380000  17.2650000  22.4000000  16.7610000
  16.8660000  22.5120000  17.5300000  15.3740000  19.0980000   2.5170000
  15.5020000  20.0130000   2.2650000  14.4250000  19.0030000   2.6020000
  15.2690000  19.2030000   2.4960000  18.5490000  20.4360000   0.5180000
  18.3730000  21.2770000   0.0970000  17.7400000  19.9370000   0.4040000
  18.4230000  20.4800000   0.4500000  21.1180000  26.3640000   7.8960000
  21.1320000  26.0510000   8.8010000  21.0690000  27.3170000   7.9730000
  21.1140000  26.4460000   8.0220000  10.5110000  24.3000000   1.7790000
   9.8850000  23.5760000   1.8030000  10.7290000  24.4590000   2.6970000
  10.4590000  24.2280000   1.8990000   7.2490000  25.9480000  13.8990000
   6.4040000  25.6280000  14.2160000   7.7220000  25.1570000  13.6400000
   7.2010000  25.8060000  13.9070000   4.1760000  31.1340000  18.2330000
   4.9870000  30.6460000  18.0910000   3.9070000  31.4110000  17.3570000
   4.2450000  31.1070000  18.1020000  16.9770000  21.8150000  15.0740000
  16.1110000  21.6510000  14.7030000  17.5590000  21.2230000  14.5960000
  16.9410000  21.7180000  14.9650000  16.6830000  27.2650000   1.7800000
  16.2260000  27.0240000   2.5860000  17.6090000  27.1250000   1.9790000
  16.7430000  27.2160000   1.9090000   6.4380000  30.1740000  15.2610000
   7.3180000  29.8010000  15.2090000   5.9000000  29.5930000  14.7240000
   6.4820000  30.0520000  15.1860000  14.8080000  22.9820000   7.3680000
  15.5040000  22.5960000   6.8350000  14.1980000  22.2600000   7.5230000
  14.8190000  22.8400000   7.3190000  12.8820000  28.4310000  14.9100000
  12.3250000  28.0370000  14.2380000  12.3060000  29.0410000  15.3700000
  12.7370000  28.4590000  14.8830000  16.7960000  27.6920000  18.1040000
  15.9730000  28.0320000  17.7550000  16.6520000  27.6360000  19.0490000
  16.6730000  27.7280000  18.1800000  10.7090000  24.4180000   4.4430000
   9.8860000  24.7010000   4.8390000  11.3870000  24.8040000   4.9980000
  10.6910000  24.5030000   4.5650000   3.7210000  28.0090000  12.5360000
   3.3440000  27.8820000  13.4060000   3.1580000  27.4980000  11.9540000
   3.6010000  27.9280000  12.5730000  12.7280000  29.5190000   7.9910000
  13.2730000  30.0200000   8.5980000  12.0340000  30.1260000   7.7340000
  12.7090000  29.6600000   8.0360000   0.7110000  31.0850000   8.8120000
   1.1050000  31.0150000   7.9420000   1.3230000  30.6300000   9.3890000
   0.8400000  31.0180000   8.7740000  15.4320000  26.7650000   4.1840000
  15.3890000  27.3840000   4.9140000  15.0660000  25.9540000   4.5360000
  15.3800000  26.7410000   4.3230000  10.1820000  27.6290000   4.6630000
   9.5100000  26.9480000   4.6930000  10.2610000  27.8460000   3.7340000
  10.1060000  27.5700000   4.5480000   3.8690000  22.4820000  18.6260000
   3.7160000  22.7620000  17.7240000   3.6320000  23.2420000  19.1570000
   3.8190000  22.6150000  18.5790000   5.8020000  26.6030000  17.7320000
   5.6870000  26.3190000  16.8250000   4.9110000  26.7060000  18.0650000
   5.6730000  26.5800000  17.6590000   4.8470000  24.9300000  12.5780000
   4.2570000  24.1910000  12.4260000   5.4590000  24.9020000  11.8430000
   4.8500000  24.8320000  12.4640000   6.2320000  31.1220000  10.6100000
   6.1920000  30.1670000  10.5730000   5.7770000  31.3500000  11.4200000
   6.1690000  31.0290000  10.7090000  14.1970000  27.7750000  17.2920000
  13.5060000  27.1350000  17.4600000  13.9890000  28.1310000  16.4290000
  14.0820000  27.7380000  17.2030000  -0.1850000  26.8770000   4.4290000
   0.4800000  27.4770000   4.7670000  -1.0170000  27.3110000   4.6180000
  -0.2060000  27.0090000   4.4970000   7.5620000  30.0580000   1.7180000
   7.1790000  29.7490000   0.8970000   7.8010000  30.9690000   1.5430000
   7.5440000  30.1350000   1.5910000   1.8180000  21.5130000   7.3960000
   1.5800000  20.6940000   6.9620000   1.0570000  22.0810000   7.2690000
   1.6900000  21.4810000   7.3240000   6.3890000  20.3280000   3.4000000
   6.6340000  19.4530000   3.7010000   6.1740000  20.8050000   4.2010000
   6.3930000  20.2770000   3.5410000  11.6210000  22.0770000   5.9380000
  11.3270000  22.7920000   5.3740000  11.3500000  22.3380000   6.8180000
  11.5490000  22.2020000   5.9780000   3.2270000  24.5930000   1.4340000
   2.3020000  24.3500000   1.4720000   3.2230000  25.5130000   1.1690000
   3.1090000  24.6800000   1.4050000   5.1960000  28.9460000   4.7230000
   6.0190000  29.4320000   4.6850000   5.2470000  28.4510000   5.5400000
   5.3080000  28.9450000   4.8220000   7.4910000  30.5830000   4.7250000
   6.9680000  31.2860000   5.1110000   7.5030000  30.7790000   3.7890000
   7.4260000  30.6980000   4.6550000  14.5340000  25.4500000   0.8890000
  15.0120000  25.0970000   0.1400000  15.0360000  26.2220000   1.1520000
  14.6590000  25.5040000   0.8270000   3.4280000  30.8860000  15.7190000
   3.3900000  31.2030000  14.8170000   2.5560000  30.5270000  15.8840000
   3.3110000  30.8800000  15.6250000   6.3620000  28.5830000  12.7730000
   6.6870000  27.7800000  13.1800000   5.4930000  28.3510000  12.4470000
   6.2920000  28.4510000  12.7830000   1.9780000  29.5170000  18.7420000
   2.7810000  30.0270000  18.6320000   1.5280000  29.9350000  19.4760000
   2.0230000  29.6360000  18.8220000  12.4740000  26.6650000   8.0020000
  12.9720000  26.4580000   7.2110000  12.6580000  27.5900000   8.1660000
  12.5610000  26.7570000   7.9220000   7.0990000  25.4110000   1.7430000
   6.6180000  24.5940000   1.6120000   7.5330000  25.5700000   0.9050000
   7.0930000  25.3270000   1.6190000   1.0630000  30.4480000   2.2010000
   1.8300000  30.1250000   2.6760000   0.3210000  30.2090000   2.7560000
   1.0660000  30.3760000   2.3330000   0.4010000  24.2040000  10.8970000
   1.1990000  23.8540000  10.5020000   0.3810000  23.8240000  11.7750000
   0.5000000  24.1100000  10.9590000   9.7950000  27.2610000   8.6250000
   9.3880000  28.0210000   8.2090000  10.6570000  27.1960000   8.2150000
   9.8530000  27.3500000   8.5190000  14.3320000  28.5000000   6.1070000
  15.0060000  28.9120000   6.6470000  13.5220000  28.9460000   6.3530000
  14.3150000  28.6100000   6.2070000   2.4860000  28.9910000   9.6100000
   3.4430000  28.9750000   9.5910000   2.2410000  28.1770000  10.0500000
   2.5770000  28.8850000   9.6640000  12.7890000  23.0010000  12.1490000
  12.3350000  23.4430000  11.4310000  12.2470000  23.1760000  12.9180000
  12.6620000  23.0800000  12.1550000  17.9540000  27.9290000  11.0930000
  17.5650000  27.4550000  11.8290000  17.4190000  28.7180000  11.0070000
  17.8360000  27.9690000  11.1760000  11.3280000  24.4770000   9.9590000
  11.9540000  24.9270000   9.3920000  11.1860000  23.6300000   9.5350000
  11.3900000  24.4260000   9.8320000  11.3520000  21.2220000   2.7150000
  10.5930000  21.4700000   2.1870000  11.9070000  22.0020000   2.7160000
  11.3260000  21.3540000   2.6480000   3.8870000  24.5150000   4.4320000
   3.7970000  24.2440000   3.5190000   2.9890000  24.6720000   4.7250000
   3.7600000  24.5010000   4.3530000  13.4740000  20.4060000   7.2280000
  12.8120000  20.8120000   6.6680000  14.1690000  20.1430000   6.6250000
  13.4780000  20.4250000   7.0790000  15.0870000  25.6380000  12.6070000
  14.8220000  24.9860000  13.2570000  15.3060000  25.1250000  11.8290000
  15.0810000  25.4890000  12.5910000   5.8330000  27.4310000   6.8320000
   6.0210000  26.6790000   6.2700000   6.6890000  27.8220000   7.0020000
   5.9660000  27.3850000   6.7820000   7.4890000  22.2910000  16.0720000
   8.4110000  22.3670000  16.3160000   7.0370000  22.9080000  16.6470000
   7.5490000  22.3790000  16.1760000   4.4800000  19.3010000   8.9910000
   4.6510000  20.2220000   9.1900000   5.0460000  18.8170000   9.5920000
   4.5740000  19.3570000   9.0930000   5.3340000  28.4280000   9.3840000
   5.5910000  28.0100000   8.5620000   5.4180000  27.7360000  10.0400000
   5.3780000  28.2860000   9.3630000  16.1400000  19.1670000  18.8070000
  15.5990000  18.6520000  19.4050000  15.6760000  20.0000000  18.7200000
  16.0120000  19.2080000  18.8730000  17.5090000  26.7180000  14.0050000
  16.6130000  26.3930000  13.9180000  17.4090000  27.6130000  14.3300000
  17.3810000  26.7910000  14.0360000   9.7050000  28.4050000   2.0430000
  10.4350000  29.0250000   2.0320000   8.9230000  28.9560000   2.0120000
   9.6980000  28.5550000   2.0370000   9.3370000  25.7860000  11.1590000
   8.8880000  25.0320000  11.5410000  10.0590000  25.4060000  10.6590000
   9.3720000  25.6410000  11.1440000  10.8720000  29.9100000  12.8710000
  10.5960000  30.7340000  13.2730000  11.8230000  29.8970000  12.9800000
  10.9590000  30.0140000  12.9360000   6.3600000  22.5230000   5.1420000
   6.2120000  23.4660000   5.0640000   5.5680000  22.1910000   5.5660000
   6.2400000  22.6010000   5.1860000   5.6160000  23.0120000   1.7370000
   4.6990000  22.7970000   1.9030000   6.0910000  22.6240000   2.4720000
   5.5590000  22.9350000   1.8520000   2.2580000  27.7580000  15.0080000
   1.5790000  28.3970000  15.2280000   1.8490000  26.9090000  15.1710000
   2.1180000  27.7310000  15.0570000   0.4060000  20.6670000  13.5900000
   1.2680000  20.6280000  14.0040000   0.5920000  20.8170000  12.6630000
   0.5400000  20.6810000  13.5240000  11.3230000  28.2000000  10.9570000
  11.0550000  28.8430000  11.6140000  10.5240000  28.0180000  10.4610000
  11.1860000  28.2590000  10.9770000  -0.1350000  25.8380000  17.5770000
  -0.7350000  26.5710000  17.7180000   0.4120000  25.8210000  18.3630000
  -0.1420000  25.9300000  17.6960000   1.2210000  24.7390000   5.6200000
   1.6210000  25.3240000   6.2640000   0.7570000  25.3240000   5.0210000
   1.2130000  24.8890000   5.6260000  11.3000000  26.5340000  13.5190000
  11.1370000  26.8430000  12.6280000  10.4390000  26.2700000  13.8420000
  11.1690000  26.5400000  13.4470000   3.1810000  19.4180000   1.6650000
   3.1820000  20.1600000   2.2690000   3.6850000  19.7220000   0.9110000
   3.2460000  19.5520000   1.6460000  11.2320000  30.1970000  16.0550000
  10.4140000  30.0410000  15.5840000  11.2800000  31.1490000  16.1440000
  11.1340000  30.2990000  16.0060000  15.5820000  24.8930000  17.2860000
  16.2950000  24.2610000  17.3810000  16.0220000  25.7300000  17.1400000
  15.7290000  24.9190000  17.2790000   1.6110000  26.6750000  10.8080000
   0.8320000  27.1810000  11.0390000   1.3490000  25.7620000  10.9310000
   1.4780000  26.6230000  10.8530000   4.7070000  30.8320000   7.9140000
   4.6200000  31.6120000   8.4630000   4.7790000  30.1080000   8.5370000
   4.7050000  30.8390000   8.0640000   0.3380000  21.9160000   3.1190000
   0.2810000  21.6620000   2.1980000  -0.2100000  22.6980000   3.1870000
   0.2610000  21.9840000   3.0100000   4.8090000  25.9730000  15.0980000
   4.7180000  25.8530000  14.1530000   4.0850000  26.5510000  15.3360000
   4.7050000  26.0320000  15.0070000   5.8910000  19.4890000   6.5500000
   5.4860000  19.1580000   7.3520000   5.9980000  18.7150000   5.9980000
   5.8530000  19.3480000   6.5820000   6.4340000  25.5350000   4.4360000
   6.8070000  25.4700000   3.5570000   5.5290000  25.2390000   4.3350000
   6.3660000  25.4880000   4.3110000   8.5790000  22.4320000   6.8210000
   7.7270000  22.2940000   6.4090000   8.6290000  23.3790000   6.9570000
   8.4770000  22.5360000   6.7860000   3.4510000  23.1000000  16.0120000
   4.2420000  23.1330000  15.4750000   3.0910000  23.9860000  15.9640000
   3.5060000  23.2170000  15.9370000   9.6240000  26.1030000   0.0600000
   9.6050000  26.7530000   0.7620000   9.9790000  25.3150000   0.4720000
   9.6670000  26.0860000   0.2020000  14.6070000  21.3530000  17.4810000
  14.6680000  21.0060000  16.5910000  13.6670000  21.4010000  17.6550000
  14.4940000  21.3150000  17.3890000   9.2970000  20.6060000   4.9120000
   9.0720000  21.3910000   5.4110000  10.1960000  20.7580000   4.6200000
   9.3840000  20.7260000   4.9390000  14.7240000  20.3260000   9.7820000
  15.5950000  19.9330000   9.8390000  14.6250000  20.5570000   8.8590000
  14.8230000  20.3050000   9.6710000  14.7490000  24.1910000   5.0300000
  14.5280000  23.9410000   5.9280000  15.5650000  23.7250000   4.8470000
  14.8250000  24.0990000   5.1220000   8.5520000  22.7410000  10.1970000
   7.7010000  22.3100000  10.1100000   8.6510000  22.8880000  11.1380000
   8.4550000  22.7050000  10.3060000  17.4400000  24.2150000   2.8660000
  16.6170000  23.7280000   2.8180000  17.1880000  25.0790000   3.1940000
  17.3030000  24.2630000   2.9020000  14.4970000  31.5480000  16.8850000
  13.8570000  31.0150000  17.3570000  14.4590000  31.2250000  15.9840000
  14.4100000  31.4380000  16.8300000   2.5270000  22.8960000   9.8110000
   2.4330000  22.4290000   8.9810000   3.3500000  22.5730000  10.1760000
   2.6200000  22.7950000   9.7520000  17.1640000  29.3850000  14.7020000
  16.2730000  29.6010000  14.9800000  17.4410000  30.1380000  14.1800000
  17.0850000  29.5090000  14.6710000   4.6900000  22.1540000  11.0670000
   5.1420000  21.5750000  11.6810000   5.2530000  22.1690000  10.2940000
   4.8200000  22.0820000  11.0470000   1.2720000  25.2540000  15.3360000
   0.7060000  25.6150000  14.6540000   0.7760000  25.3700000  16.1460000
   1.1360000  25.3150000  15.3520000  14.5910000  30.4240000  14.4860000
  13.9810000  29.6880000  14.5420000  14.1590000  31.0480000  13.9030000
  14.4580000  30.4090000  14.4190000   3.6890000  31.0120000  12.9110000
   3.2280000  31.3560000  12.1460000   3.7700000  30.0740000  12.7390000
   3.6400000  30.9360000  12.7910000   1.8850000  28.6530000   5.0960000
   2.8410000  28.6850000   5.1230000   1.6140000  29.5700000   5.1340000
   1.9730000  28.7740000   5.1040000   6.7250000  24.1120000  18.0400000
   5.9600000  23.7150000  18.4570000   6.4710000  25.0230000  17.8910000
   6.5940000  24.1780000  18.0740000   3.2440000  21.9430000   3.0670000
   3.5520000  22.0080000   3.9710000   2.3260000  21.6850000   3.1460000
   3.1660000  21.9180000   3.1930000  12.5530000  26.2040000   5.4510000
  13.1730000  26.6480000   4.8720000  11.7430000  26.7080000   5.3660000
  12.5290000  26.3260000   5.3660000   8.2640000  28.6670000   6.8240000
   8.7780000  28.0670000   6.2840000   7.9900000  29.3570000   6.2200000
   8.2940000  28.6780000   6.6780000  14.3060000  21.8960000  14.3830000
  14.0190000  22.7220000  14.7740000  14.0830000  21.9800000  13.4560000
  14.2400000  22.0130000  14.3150000  18.3210000  23.2320000   6.8690000
  18.9030000  23.7170000   6.2830000  17.7550000  23.9020000   7.2520000
  18.3230000  23.3800000   6.8430000  12.7000000  30.0080000  18.1770000
  11.8890000  30.0460000  17.6700000  13.0640000  29.1450000  17.9820000
  12.6430000  29.9030000  18.0870000   6.0400000  22.0510000   8.7350000
   5.8620000  22.6410000   8.0030000   6.5250000  21.3240000   8.3450000
   6.0790000  22.0340000   8.5920000  -0.3550000  28.6410000   7.3120000
   0.2420000  28.8970000   6.6080000  -0.0520000  29.1360000   8.0740000
  -0.2400000  28.7370000   7.3190000  16.0140000  29.7380000   8.0980000
  16.8670000  29.3970000   7.8280000  16.0360000  29.7090000   9.0540000
  16.1260000  29.6900000   8.1850000   8.9440000  26.6490000  16.0030000
   8.1900000  26.3190000  15.5140000   8.7430000  26.4510000  16.9170000
   8.8220000  26.5810000  16.0570000  12.4940000  25.9720000  18.0720000
  11.7100000  25.9330000  18.6200000  13.1310000  25.4210000  18.5260000
  12.4750000  25.8970000  18.2000000  18.0900000  19.7640000   7.6060000
  17.4940000  19.4140000   8.2680000  18.8080000  19.1320000   7.5710000
  18.1060000  19.6390000   7.6860000  14.1600000  30.4090000   3.3130000
  14.5560000  30.7500000   4.1150000  14.6510000  30.8280000   2.6060000
  14.2730000  30.5060000   3.3250000  13.8890000  24.4950000  15.2750000
  14.5820000  24.6890000  15.9070000  13.2530000  25.2010000  15.3930000
  13.8960000  24.6100000  15.3710000   6.4660000  21.4360000  -5.2660000
   6.6940000  21.4080000  -4.3370000   5.8370000  20.7240000  -5.3790000
   6.4150000  21.3410000  -5.1610000   4.3820000  19.7220000  -5.7600000
   3.8220000  20.1700000  -5.1260000   4.2360000  18.7910000  -5.5930000
   4.2920000  19.6600000  -5.6580000   5.2010000  27.9630000 -16.5120000
   5.0470000  28.4200000 -15.6850000   5.9130000  27.3530000 -16.3200000
   5.2720000  27.9430000 -16.3820000   8.5960000  23.1720000  -5.9070000
   7.9930000  22.5310000  -5.5320000   9.3850000  23.1030000  -5.3690000
   8.6200000  23.0820000  -5.7900000   9.1340000  19.6090000   0.3710000
  10.0260000  19.3800000   0.1070000   8.6120000  19.4880000  -0.4220000
   9.1820000  19.5650000   0.2360000  11.0190000  22.9980000  -4.6390000
  11.1970000  22.1160000  -4.3130000  11.3380000  23.5780000  -3.9470000
  11.0830000  22.9590000  -4.5080000  16.4590000  21.6260000 -13.1400000
  16.5270000  20.6790000 -13.2640000  17.3280000  21.8910000 -12.8390000
  16.5790000  21.5390000 -13.1170000  17.5780000  25.9170000 -11.2990000
  16.7990000  26.0270000 -10.7540000  17.9220000  26.8030000 -11.4080000
  17.5220000  26.0440000 -11.2430000   8.6740000  22.0450000 -17.1510000
   8.4080000  21.5820000 -16.3560000   8.6900000  21.3680000 -17.8270000
   8.6420000  21.8990000 -17.1350000   8.9090000  29.2330000  -3.8670000
   8.7810000  28.3680000  -3.4780000   9.3520000  29.0580000  -4.6980000
   8.9490000  29.1000000  -3.9240000  17.5210000  29.8220000 -15.1180000
  17.1550000  30.4630000 -14.5080000  16.7560000  29.4000000 -15.5100000
  17.3760000  29.8500000 -15.0900000   0.0330000  23.5630000  -5.3100000
   0.3100000  24.1320000  -4.5920000  -0.5690000  22.9400000  -4.9030000
  -0.0080000  23.5560000  -5.1660000   0.9060000  29.9000000  -2.7170000
  -0.0150000  29.6800000  -2.8570000   0.9860000  30.0070000  -1.7700000
   0.7980000  29.8850000  -2.6140000  15.8460000  21.8520000 -16.0130000
  15.9780000  21.7080000 -15.0760000  14.9780000  22.2510000 -16.0730000
  15.7520000  21.8840000 -15.9000000   4.6080000  24.1690000 -11.7400000
   4.2010000  24.1680000 -12.6070000   4.1220000  24.8320000 -11.2490000
   4.4940000  24.2540000 -11.7880000   2.7270000  20.5650000  -3.7220000
   2.9340000  21.4630000  -3.4650000   2.3710000  20.1640000  -2.9290000
   2.7080000  20.6280000  -3.5880000   4.0350000  21.3560000 -13.0220000
   3.2770000  21.3430000 -12.4370000   4.5670000  20.6120000 -12.7410000
   4.0060000  21.2590000 -12.9110000  11.0750000  25.0540000  -2.7230000
  11.6610000  25.3670000  -2.0340000  10.3490000  25.6790000  -2.7230000
  11.0570000  25.1740000  -2.6350000   8.6950000  25.5550000 -13.1910000
   7.8700000  25.5370000 -13.6760000   8.4440000  25.3690000 -12.2860000
   8.5570000  25.5290000 -13.1370000   0.5960000  23.5670000   0.3310000
   0.3980000  23.6480000  -0.6010000  -0.1980000  23.8700000   0.7720000
   0.4690000  23.6160000   0.2680000   3.5200000  27.1770000 -18.5210000
   2.9170000  27.9140000 -18.6170000   4.1490000  27.4670000 -17.8600000
   3.5230000  27.3080000 -18.4490000   6.6700000  26.1300000  -8.2460000
   7.5510000  26.4220000  -8.0140000   6.7560000  25.7960000  -9.1390000
   6.7940000  26.1250000  -8.3310000  10.9670000  21.9490000 -10.0620000
  10.0150000  21.8860000  -9.9910000  11.2950000  21.2210000  -9.5340000
  10.8870000  21.8480000  -9.9850000  16.0960000  29.9570000  -7.9400000
  16.5360000  30.4640000  -7.2570000  15.4240000  29.4600000  -7.4740000
  16.0670000  29.9580000  -7.7930000   6.6160000  29.4780000  -0.8760000
   6.4590000  28.5340000  -0.9120000   6.5270000  29.7700000  -1.7830000
   6.5840000  29.3940000  -0.9970000  13.4460000  23.2740000 -16.1980000
  13.5500000  23.6180000 -15.3110000  13.3160000  24.0500000 -16.7430000
  13.4430000  23.4170000 -16.1540000  16.0880000  24.1220000  -8.8710000
  17.0000000  24.1330000  -8.5780000  16.0880000  23.5370000  -9.6290000
  16.2050000  24.0480000  -8.9300000  13.9330000  28.4590000  -7.0200000
  13.0580000  28.2020000  -7.3100000  14.2850000  27.6760000  -6.5960000
  13.8660000  28.3260000  -7.0030000   5.6750000  20.4480000 -18.2110000
   6.0170000  20.4570000 -17.3170000   5.1900000  21.2700000 -18.2890000
   5.6570000  20.5550000 -18.1070000   0.8440000  20.3640000  -8.3070000
   1.6780000  20.8180000  -8.4310000   0.2560000  20.7630000  -8.9470000
   0.8760000  20.4730000  -8.4040000   1.9430000  19.4970000  -1.2950000
   1.1100000  19.0700000  -1.0940000   1.9100000  20.3240000  -0.8150000
   1.8320000  19.5480000  -1.2080000   8.2780000  24.9590000 -10.5570000
   8.3640000  24.1750000 -10.0140000   8.7180000  25.6460000 -10.0570000
   8.3450000  24.9470000 -10.4240000  16.9400000  22.5770000  -1.2170000
  16.0410000  22.2490000  -1.2220000  17.2650000  22.4000000  -2.0990000
  16.8660000  22.5120000  -1.3300000  15.3740000  19.0980000 -16.3430000
  15.5020000  20.0130000 -16.5950000  14.4250000  19.0030000 -16.2580000
  15.2690000  19.2030000 -16.3640000  18.5490000  20.4360000 -18.3420000
  18.3730000  21.2770000 -18.7630000  17.7400000  19.9370000 -18.4560000
  18.4230000  20.4800000 -18.4100000  21.1180000  26.3640000 -10.9640000
  21.1320000  26.0510000 -10.0590000  21.0690000  27.3170000 -10.8870000
  21.1140000  26.4460000 -10.8380000  10.5110000  24.3000000 -17.0810000
   9.8850000  23.5760000 -17.0570000  10.7290000  24.4590000 -16.1630000
  10.4590000  24.2280000 -16.9610000   7.2490000  25.9480000  -4.9610000
   6.4040000  25.6280000  -4.6440000   7.7220000  25.1570000  -5.2200000
   7.2010000  25.8060000  -4.9530000   4.1760000  31.1340000  -0.6270000
   4.9870000  30.6460000  -0.7690000   3.9070000  31.4110000  -1.5030000
   4.2450000  31.1070000  -0.7580000  16.9770000  21.8150000  -3.7860000
  16.1110000  21.6510000  -4.1570000  17.5590000  21.2230000  -4.2640000
  16.9410000  21.7180000  -3.8950000  16.6830000  27.2650000 -17.0800000
  16.2260000  27.0240000 -16.2740000  17.6090000  27.1250000 -16.8810000
  16.7430000  27.2160000 -16.9510000   6.4380000  30.1740000  -3.5990000
   7.3180000  29.8010000  -3.6510000   5.9000000  29.5930000  -4.1360000
   6.4820000  30.0520000  -3.6740000  14.8080000  22.9820000 -11.4920000
  15.5040000  22.5960000 -12.0250000  14.1980000  22.2600000 -11.3370000
  14.8190000  22.8400000 -11.5410000  12.8820000  28.4310000  -3.9500000
  12.3250000  28.0370000  -4.6220000  12.3060000  29.0410000  -3.4900000
  12.7370000  28.4590000  -3.9770000  16.7960000  27.6920000  -0.7560000
  15.9730000  28.0320000  -1.1050000  16.6520000  27.6360000   0.1890000
  16.6730000  27.7280000  -0.6800000  10.7090000  24.4180000 -14.4170000
   9.8860000  24.7010000 -14.0210000  11.3870000  24.8040000 -13.8620000
  10.6910000  24.5030000 -14.2950000   3.7210000  28.0090000  -6.3240000
   3.3440000  27.8820000  -5.4540000   3.1580000  27.4980000  -6.9060000
   3.6010000  27.9280000  -6.2870000  12.7280000  29.5190000 -10.8690000
  13.2730000  30.0200000 -10.2620000  12.0340000  30.1260000 -11.1260000
  12.7090000  29.6600000 -10.8240000   0.7110000  31.0850000 -10.0480000
   1.1050000  31.0150000 -10.9180000   1.3230000  30.6300000  -9.4710000
   0.8400000  31.0180000 -10.0860000  15.4320000  26.7650000 -14.6760000
  15.3890000  27.3840000 -13.9460000  15.0660000  25.9540000 -14.3240000
  15.3800000  26.7410000 -14.5370000  10.1820000  27.6290000 -14.1970000
   9.5100000  26.9480000 -14.1670000  10.2610000  27.8460000 -15.1260000
  10.1060000  27.5700000 -14.3120000   3.8690000  22.4820000  -0.2340000
   3.7160000  22.7620000  -1.1360000   3.6320000  23.2420000   0.2970000
   3.8190000  22.6150000  -0.2810000   5.8020000  26.6030000  -1.1280000
   5.6870000  26.3190000  -2.0350000   4.9110000  26.7060000  -0.7950000
   5.6730000  26.5800000  -1.2020000   4.8470000  24.9300000  -6.2820000
   4.2570000  24.1910000  -6.4340000   5.4590000  24.9020000  -7.0170000
   4.8500000  24.8320000  -6.3960000   6.2320000  31.1220000  -8.2500000
   6.1920000  30.1670000  -8.2870000   5.7770000  31.3500000  -7.4400000
   6.1690000  31.0290000  -8.1510000  14.1970000  27.7750000  -1.5680000
  13.5060000  27.1350000  -1.4000000  13.9890000  28.1310000  -2.4310000
  14.0820000  27.7380000  -1.6570000  -0.1850000  26.8770000 -14.4310000
   0.4800000  27.4770000 -14.0930000  -1.0170000  27.3110000 -14.2420000
  -0.2060000  27.0090000 -14.3630000   7.5620000  30.0580000 -17.1420000
   7.1790000  29.7490000 -17.9630000   7.8010000  30.9690000 -17.3170000
   7.5440000  30.1350000 -17.2690000   1.8180000  21.5130000 -11.4640000
   1.5800000  20.6940000 -11.8980000   1.0570000  22.0810000 -11.5910000
   1.6900000  21.4810000 -11.5360000   6.3890000  20.3280000 -15.4600000
   6.6340000  19.4530000 -15.1590000   6.1740000  20.8050000 -14.6590000
   6.3930000  20.2770000 -15.3190000  11.6210000  22.0770000 -12.9220000
  11.3270000  22.7920000 -13.4860000  11.3500000  22.3380000 -12.0420000
  11.5490000  22.2020000 -12.8820000   3.2270000  24.5930000 -17.4260000
   2.3020000  24.3500000 -17.3880000   3.2230000  25.5130000 -17.6910000
   3.1090000  24.6800000 -17.4550000   5.1960000  28.9460000 -14.1370000
   6.0190000  29.4320000 -14.1750000   5.2470000  28.4510000 -13.3200000
   5.3080000  28.9450000 -14.0380000   7.4910000  30.5830000 -14.1350000
   6.9680000  31.2860000 -13.7490000   7.5030000  30.7790000 -15.0710000
   7.4260000  30.6980000 -14.2050000  14.5340000  25.4500000 -17.9710000
  15.0120000  25.0970000 -18.7200000  15.0360000  26.2220000 -17.7080000
  14.6590000  25.5040000 -18.0330000   3.4280000  30.8860000  -3.1410000
   3.3900000  31.2030000  -4.0430000   2.5560000  30.5270000  -2.9760000
   3.3110000  30.8800000  -3.2350000  16.3860000  16.5300000  -8.5720000
  16.5320000  16.9350000  -7.7170000  15.4410000  16.5980000  -8.7110000
  16.2840000  16.5900000  -8.4800000   6.3620000  28.5830000  -6.0870000
   6.6870000  27.7800000  -5.6800000   5.4930000  28.3510000  -6.4130000
   6.2920000  28.4510000  -6.0770000   1.9780000  29.5170000  -0.1180000
   2.7810000  30.0270000  -0.2280000   1.5280000  29.9350000   0.6160000
   2.0230000  29.6360000  -0.0380000  12.4740000  26.6650000 -10.8580000
  12.9720000  26.4580000 -11.6490000  12.6580000  27.5900000 -10.6940000
  12.5610000  26.7570000 -10.9380000   7.0990000  25.4110000 -17.1170000
   6.6180000  24.5940000 -17.2480000   7.5330000  25.5700000 -17.9550000
   7.0930000  25.3270000 -17.2410000   1.0630000  30.4480000 -16.6590000
   1.8300000  30.1250000 -16.1840000   0.3210000  30.2090000 -16.1040000
   1.0660000  30.3760000 -16.5270000   0.4010000  24.2040000  -7.9630000
   1.1990000  23.8540000  -8.3580000   0.3810000  23.8240000  -7.0850000
   0.5000000  24.1100000  -7.9010000   9.7950000  27.2610000 -10.2350000
   9.3880000  28.0210000 -10.6510000  10.6570000  27.1960000 -10.6450000
   9.8530000  27.3500000 -10.3410000  14.3320000  28.5000000 -12.7530000
  15.0060000  28.9120000 -12.2130000  13.5220000  28.9460000 -12.5070000
  14.3150000  28.6100000 -12.6530000   2.4860000  28.9910000  -9.2500000
   3.4430000  28.9750000  -9.2690000   2.2410000  28.1770000  -8.8100000
   2.5770000  28.8850000  -9.1960000  12.7890000  23.0010000  -6.7110000
  12.3350000  23.4430000  -7.4290000  12.2470000  23.1760000  -5.9420000
  12.6620000  23.0800000  -6.7050000  17.9540000  27.9290000  -7.7670000
  17.5650000  27.4550000  -7.0310000  17.4190000  28.7180000  -7.8530000
  17.8360000  27.9690000  -7.6840000  11.3280000  24.4770000  -8.9010000
  11.9540000  24.9270000  -9.4680000  11.1860000  23.6300000  -9.3250000
  11.3900000  24.4260000  -9.0280000  11.3520000  21.2220000 -16.1450000
  10.5930000  21.4700000 -16.6730000  11.9070000  22.0020000 -16.1440000
  11.3260000  21.3540000 -16.2120000   3.8870000  24.5150000 -14.4280000
   3.7970000  24.2440000 -15.3410000   2.9890000  24.6720000 -14.1350000
   3.7600000  24.5010000 -14.5070000  13.4740000  20.4060000 -11.6320000
  12.8120000  20.8120000 -12.1920000  14.1690000  20.1430000 -12.2350000
  13.4780000  20.4250000 -11.7810000  15.0870000  25.6380000  -6.2530000
  14.8220000  24.9860000  -5.6030000  15.3060000  25.1250000  -7.0310000
  15.0810000  25.4890000  -6.2690000   5.8330000  27.4310000 -12.0280000
   6.0210000  26.6790000 -12.5900000   6.6890000  27.8220000 -11.8580000
   5.9660000  27.3850000 -12.0780000   7.4890000  22.2910000  -2.7880000
   8.4110000  22.3670000  -2.5440000   7.0370000  22.9080000  -2.2130000
   7.5490000  22.3790000  -2.6840000   4.4800000  19.3010000  -9.8690000
   4.6510000  20.2220000  -9.6700000   5.0460000  18.8170000  -9.2680000
   4.5740000  19.3570000  -9.7670000   5.3340000  28.4280000  -9.4760000
   5.5910000  28.0100000 -10.2980000   5.4180000  27.7360000  -8.8200000
   5.3780000  28.2860000  -9.4970000  16.1400000  19.1670000  -0.0530000
  15.5990000  18.6520000   0.5450000  15.6760000  20.0000000  -0.1400000
  16.0120000  19.2080000   0.0130000  17.5090000  26.7180000  -4.8550000
  16.6130000  26.3930000  -4.9420000  17.4090000  27.6130000  -4.5300000
  17.3810000  26.7910000  -4.8240000   9.7050000  28.4050000 -16.8170000
  10.4350000  29.0250000 -16.8280000   8.9230000  28.9560000 -16.8480000
   9.6980000  28.5550000 -16.8230000   9.3370000  25.7860000  -7.7010000
   8.8880000  25.0320000  -7.3190000  10.0590000  25.4060000  -8.2010000
   9.3720000  25.6410000  -7.7160000  10.8720000  29.9100000  -5.9890000
  10.5960000  30.7340000  -5.5870000  11.8230000  29.8970000  -5.8800000
  10.9590000  30.0140000  -5.9240000   6.3600000  22.5230000 -13.7180000
   6.2120000  23.4660000 -13.7960000   5.5680000  22.1910000 -13.2940000
   6.2400000  22.6010000 -13.6740000  10.0110000  22.8670000  -1.2990000
   9.5450000  23.4650000  -0.7150000  10.6060000  23.4310000  -1.7940000
  10.0270000  23.0150000  -1.2880000   5.6160000  23.0120000 -17.1230000
   4.6990000  22.7970000 -16.9570000   6.0910000  22.6240000 -16.3880000
   5.5590000  22.9350000 -17.0080000   2.2580000  27.7580000  -3.8520000
   1.5790000  28.3970000  -3.6320000   1.8490000  26.9090000  -3.6890000
   2.1180000  27.7310000  -3.8030000   0.4060000  20.6670000  -5.2700000
   1.2680000  20.6280000  -4.8560000   0.5920000  20.8170000  -6.1970000
   0.5400000  20.6810000  -5.3360000  11.3230000  28.2000000  -7.9030000
  11.0550000  28.8430000  -7.2460000  10.5240000  28.0180000  -8.3990000
  11.1860000  28.2590000  -7.8830000  -0.1350000  25.8380000  -1.2830000
  -0.7350000  26.5710000  -1.1420000   0.4120000  25.8210000  -0.4970000
  -0.1420000  25.9300000  -1.1640000   1.2210000  24.7390000 -13.2400000
   1.6210000  25.3240000 -12.5960000   0.7570000  25.3240000 -13.8390000
   1.2130000  24.8890000 -13.2340000  11.3000000  26.5340000  -5.3410000
  11.1370000  26.8430000  -6.2320000  10.4390000  26.2700000  -5.0180000
  11.1690000  26.5400000  -5.4130000  11.5220000  20.7550000  -1.2030000
  11.5190000  20.4650000  -2.1150000  10.8500000  21.4360000  -1.1660000
  11.4350000  20.8050000  -1.3150000   3.1810000  19.4180000 -17.1950000
   3.1820000  20.1600000 -16.5910000   3.6850000  19.7220000 -17.9490000
   3.2460000  19.5520000 -17.2140000  11.2320000  30.1970000  -2.8050000
  10.4140000  30.0410000  -3.2760000  11.2800000  31.1490000  -2.7160000
  11.1340000  30.2990000  -2.8540000  15.5820000  24.8930000  -1.5740000
  16.2950000  24.2610000  -1.4790000  16.0220000  25.7300000  -1.7200000
  15.7290000  24.9190000  -1.5810000   1.6110000  26.6750000  -8.0520000
   0.8320000  27.1810000  -7.8210000   1.3490000  25.7620000  -7.9290000
   1.4780000  26.6230000  -8.0070000   4.7070000  30.8320000 -10.9460000
   4.6200000  31.6120000 -10.3970000   4.7790000  30.1080000 -10.3230000
   4.7050000  30.8390000 -10.7960000   0.3380000  21.9160000 -15.7410000
   0.2810000  21.6620000 -16.6620000  -0.2100000  22.6980000 -15.6730000
   0.2610000  21.9840000 -15.8500000   4.8090000  25.9730000  -3.7620000
   4.7180000  25.8530000  -4.7070000   4.0850000  26.5510000  -3.5240000
   4.7050000  26.0320000  -3.8530000   5.8910000  19.4890000 -12.3100000
   5.4860000  19.1580000 -11.5080000   5.9980000  18.7150000 -12.8620000
   5.8530000  19.3480000 -12.2780000   6.4340000  25.5350000 -14.4240000
   6.8070000  25.4700000 -15.3030000   5.5290000  25.2390000 -14.5250000
   6.3660000  25.4880000 -14.5490000   8.5790000  22.4320000 -12.0390000
   7.7270000  22.2940000 -12.4510000   8.6290000  23.3790000 -11.9030000
   8.4770000  22.5360000 -12.0740000   3.4510000  23.1000000  -2.8480000
   4.2420000  23.1330000  -3.3850000   3.0910000  23.9860000  -2.8960000
   3.5060000  23.2170000  -2.9230000   9.6240000  26.1030000 -18.8000000
   9.6050000  26.7530000 -18.0980000   9.9790000  25.3150000 -18.3880000
   9.6670000  26.0860000 -18.6580000  14.6070000  21.3530000  -1.3790000
  14.6680000  21.0060000  -2.2690000  13.6670000  21.4010000  -1.2050000
  14.4940000  21.3150000  -1.4710000   9.2970000  20.6060000 -13.9480000
   9.0720000  21.3910000 -13.4490000  10.1960000  20.7580000 -14.2400000
   9.3840000  20.7260000 -13.9210000  14.7240000  20.3260000  -9.0780000
  15.5950000  19.9330000  -9.0210000  14.6250000  20.5570000 -10.0010000
  14.8230000  20.3050000  -9.1890000  11.6320000  20.5930000  -3.9440000
  11.3720000  19.8170000  -4.4410000  12.5880000  20.5980000  -3.9920000
  11.7210000  20.4940000  -4.0140000  14.7490000  24.1910000 -13.8300000
  14.5280000  23.9410000 -12.9320000  15.5650000  23.7250000 -14.0130000
  14.8250000  24.0990000 -13.7380000   8.5520000  22.7410000  -8.6630000
   7.7010000  22.3100000  -8.7500000   8.6510000  22.8880000  -7.7220000
   8.4550000  22.7050000  -8.5540000   7.1830000  19.7620000  -1.5120000
   6.6300000  20.0730000  -0.7960000   7.2440000  20.5080000  -2.1090000
   7.1200000  19.8970000  -1.4970000  17.4400000  24.2150000 -15.9940000
  16.6170000  23.7280000 -16.0420000  17.1880000  25.0790000 -15.6660000
  17.3030000  24.2630000 -15.9580000  14.4970000  31.5480000  -1.9750000
  13.8570000  31.0150000  -1.5030000  14.4590000  31.2250000  -2.8760000
  14.4100000  31.4380000  -2.0300000   2.5270000  22.8960000  -9.0490000
   2.4330000  22.4290000  -9.8790000   3.3500000  22.5730000  -8.6840000
   2.6200000  22.7950000  -9.1080000  17.1640000  29.3850000  -4.1580000
  16.2730000  29.6010000  -3.8800000  17.4410000  30.1380000  -4.6800000
  17.0850000  29.5090000  -4.1890000   4.6900000  22.1540000  -7.7930000
   5.1420000  21.5750000  -7.1790000   5.2530000  22.1690000  -8.5660000
   4.8200000  22.0820000  -7.8130000   1.2720000  25.2540000  -3.5240000
   0.7060000  25.6150000  -4.2060000   0.7760000  25.3700000  -2.7140000
   1.1360000  25.3150000  -3.5080000  14.5910000  30.4240000  -4.3740000
  13.9810000  29.6880000  -4.3180000  14.1590000  31.0480000  -4.9570000
  14.4580000  30.4090000  -4.4410000   3.6890000  31.0120000  -5.9490000
   3.2280000  31.3560000  -6.7140000   3.7700000  30.0740000  -6.1210000
   3.6400000  30.9360000  -6.0690000   1.8850000  28.6530000 -13.7640000
   2.8410000  28.6850000 -13.7370000   1.6140000  29.5700000 -13.7260000
   1.9730000  28.7740000 -13.7560000   6.7250000  24.1120000  -0.8210000
   5.9600000  23.7150000  -0.4030000   6.4710000  25.0230000  -0.9690000
   6.5940000  24.1780000  -0.7860000   3.2440000  21.9430000 -15.7930000
   3.5520000  22.0080000 -14.8890000   2.3260000  21.6850000 -15.7140000
   3.1660000  21.9180000 -15.6670000  12.5530000  26.2040000 -13.4090000
  13.1730000  26.6480000 -13.9880000  11.7430000  26.7080000 -13.4940000
  12.5290000  26.3260000 -13.4940000   8.2640000  28.6670000 -12.0360000
   8.7780000  28.0670000 -12.5760000   7.9900000  29.3570000 -12.6400000
   8.2940000  28.6780000 -12.1820000  14.3060000  21.8960000  -4.4770000
  14.0190000  22.7220000  -4.0860000  14.0830000  21.9800000  -5.4040000
  14.2400000  22.0130000  -4.5450000  18.3210000  23.2320000 -11.9910000
  18.9030000  23.7170000 -12.5770000  17.7550000  23.9020000 -11.6080000
  18.3230000  23.3800000 -12.0170000  12.7000000  30.0080000  -0.6830000
  11.8890000  30.0460000  -1.1900000  13.0640000  29.1450000  -0.8780000
  12.6430000  29.9030000  -0.7730000   6.0400000  22.0510000 -10.1250000
   5.8620000  22.6410000 -10.8570000   6.5250000  21.3240000 -10.5150000
   6.0790000  22.0340000 -10.2680000  -0.3550000  28.6410000 -11.5480000
   0.2420000  28.8970000 -12.2520000  -0.0520000  29.1360000 -10.7860000
  -0.2400000  28.7370000 -11.5410000  16.0140000  29.7380000 -10.7620000
  16.8670000  29.3970000 -11.0320000  16.0360000  29.7090000  -9.8060000
  16.1260000  29.6900000 -10.6750000   8.9440000  26.6490000  -2.8570000
   8.1900000  26.3190000  -3.3460000   8.7430000  26.4510000  -1.9430000
   8.8220000  26.5810000  -2.8030000  12.4940000  25.9720000  -0.7880000
  11.7100000  25.9330000  -0.2400000  13.1310000  25.4210000  -0.3340000
  12.4750000  25.8970000  -0.6600000  18.0900000  19.7640000 -11.2540000
  17.4940000  19.4140000 -10.5920000  18.8080000  19.1320000 -11.2890000
  18.1060000  19.6390000 -11.1740000  14.1600000  30.4090000 -15.5470000
  14.5560000  30.7500000 -14.7450000  14.6510000  30.8280000 -16.2540000
  14.2730000  30.5060000 -15.5350000  13.8890000  24.4950000  -3.5850000
  14.5820000  24.6890000  -2.9530000  13.2530000  25.2010000  -3.4670000
  13.8960000  24.6100000  -3.4890000   6.4660000  21.4360000 -24.1260000
   6.6940000  21.4080000 -23.1970000   5.8370000  20.7240000 -24.2390000
   6.4150000  21.3410000 -24.0210000   4.3820000  19.7220000 -24.6200000
   3.8220000  20.1700000 -23.9860000   4.2360000  18.7910000 -24.4530000
   4.2920000  19.6600000 -24.5180000   5.2010000  27.9630000 -35.3720000
   5.0470000  28.4200000 -34.5450000   5.9130000  27.3530000 -35.1800000
   5.2720000  27.9430000 -35.2420000   8.5960000  23.1720000 -24.7670000
   7.9930000  22.5310000 -24.3920000   9.3850000  23.1030000 -24.2290000
   8.6200000  23.0820000 -24.6500000   9.1340000  19.6090000 -18.4890000
  10.0260000  19.3800000 -18.7530000   8.6120000  19.4880000 -19.2820000
   9.1820000  19.5650000 -18.6240000  11.0190000  22.9980000 -23.4990000
  11.1970000  22.1160000 -23.1730000  11.3380000  23.5780000 -22.8070000
  11.0830000  22.9590000 -23.3680000  16.4590000  21.6260000 -32.0000000
  16.5270000  20.6790000 -32.1240000  17.3280000  21.8910000 -31.6990000
  16.5790000  21.5390000 -31.9770000  17.5780000  25.9170000 -30.1590000
  16.7990000  26.0270000 -29.6140000  17.9220000  26.8030000 -30.2680000
  17.5220000  26.0440000 -30.1030000   8.6740000  22.0450000 -36.0110000
   8.4080000  21.5820000 -35.2160000   8.6900000  21.3680000 -36.6870000
   8.6420000  21.8990000 -35.9950000   8.9090000  29.2330000 -22.7270000
   8.7810000  28.3680000 -22.3380000   9.3520000  29.0580000 -23.5580000
   8.9490000  29.1000000 -22.7840000  11.7850000  30.1850000 -35.7080000
  12.5550000  30.2060000 -35.1410000  12.1040000  29.8180000 -36.5320000
  11.9240000  30.1410000 -35.7410000  17.5210000  29.8220000 -33.9780000
  17.1550000  30.4630000 -33.3680000  16.7560000  29.4000000 -34.3700000
  17.3760000  29.8500000 -33.9500000   0.0330000  23.5630000 -24.1700000
   0.3100000  24.1320000 -23.4520000  -0.5690000  22.9400000 -23.7630000
  -0.0080000  23.5560000 -24.0260000   0.9060000  29.9000000 -21.5770000
  -0.0150000  29.6800000 -21.7170000   0.9860000  30.0070000 -20.6300000
   0.7980000  29.8850000 -21.4740000  15.8460000  21.8520000 -34.8730000
  15.9780000  21.7080000 -33.9360000  14.9780000  22.2510000 -34.9330000
  15.7520000  21.8840000 -34.7600000   4.6080000  24.1690000 -30.6000000
   4.2010000  24.1680000 -31.4670000   4.1220000  24.8320000 -30.1090000
   4.4940000  24.2540000 -30.6480000   2.7270000  20.5650000 -22.5820000
   2.9340000  21.4630000 -22.3250000   2.3710000  20.1640000 -21.7890000
   2.7080000  20.6280000 -22.4480000   4.0350000  21.3560000 -31.8820000
   3.2770000  21.3430000 -31.2970000   4.5670000  20.6120000 -31.6010000
   4.0060000  21.2590000 -31.7710000  11.0750000  25.0540000 -21.5830000
  11.6610000  25.3670000 -20.8940000  10.3490000  25.6790000 -21.5830000
  11.0570000  25.1740000 -21.4950000   8.6950000  25.5550000 -32.0510000
   7.8700000  25.5370000 -32.5360000   8.4440000  25.3690000 -31.1460000
   8.5570000  25.5290000 -31.9970000   0.5960000  23.5670000 -18.5290000
   0.3980000  23.6480000 -19.4610000  -0.1980000  23.8700000 -18.0880000
   0.4690000  23.6160000 -18.5920000   3.5200000  27.1770000 -37.3810000
   2.9170000  27.9140000 -37.4770000   4.1490000  27.4670000 -36.7200000
   3.5230000  27.3080000 -37.3090000   6.6700000  26.1300000 -27.1060000
   7.5510000  26.4220000 -26.8740000   6.7560000  25.7960000 -27.9990000
   6.7940000  26.1250000 -27.1910000  10.9670000  21.9490000 -28.9220000
  10.0150000  21.8860000 -28.8510000  11.2950000  21.2210000 -28.3940000
  10.8870000  21.8480000 -28.8450000  16.0960000  29.9570000 -26.8000000
  16.5360000  30.4640000 -26.1170000  15.4240000  29.4600000 -26.3340000
  16.0670000  29.9580000 -26.6530000   6.6160000  29.4780000 -19.7360000
   6.4590000  28.5340000 -19.7720000   6.5270000  29.7700000 -20.6430000
   6.5840000  29.3940000 -19.8570000  13.4460000  23.2740000 -35.0580000
  13.5500000  23.6180000 -34.1710000  13.3160000  24.0500000 -35.6030000
  13.4430000  23.4170000 -35.0140000  16.0880000  24.1220000 -27.7310000
  17.0000000  24.1330000 -27.4380000  16.0880000  23.5370000 -28.4890000
  16.2050000  24.0480000 -27.7900000  13.9330000  28.4590000 -25.8800000
  13.0580000  28.2020000 -26.1700000  14.2850000  27.6760000 -25.4560000
  13.8660000  28.3260000 -25.8630000   5.6750000  20.4480000 -37.0710000
   6.0170000  20.4570000 -36.1770000   5.1900000  21.2700000 -37.1490000
   5.6570000  20.5550000 -36.9670000   0.8440000  20.3640000 -27.1670000
   1.6780000  20.8180000 -27.2910000   0.2560000  20.7630000 -27.8070000
   0.8760000  20.4730000 -27.2640000   1.9430000  19.4970000 -20.1550000
   1.1100000  19.0700000 -19.9540000   1.9100000  20.3240000 -19.6750000
   1.8320000  19.5480000 -20.0680000   8.2780000  24.9590000 -29.4170000
   8.3640000  24.1750000 -28.8740000   8.7180000  25.6460000 -28.9170000
   8.3450000  24.9470000 -29.2840000  16.9400000  22.5770000 -20.0770000
  16.0410000  22.2490000 -20.0820000  17.2650000  22.4000000 -20.9590000
  16.8660000  22.5120000 -20.1900000  15.3740000  19.0980000 -35.2030000
  15.5020000  20.0130000 -35.4550000  14.4250000  19.0030000 -35.1180000
  15.2690000  19.2030000 -35.2240000  18.5490000  20.4360000 -37.2020000
  18.3730000  21.2770000 -37.6230000  17.7400000  19.9370000 -37.3160000
  18.4230000  20.4800000 -37.2700000  21.1180000  26.3640000 -29.8240000
  21.1320000  26.0510000 -28.9190000  21.0690000  27.3170000 -29.7470000
  21.1140000  26.4460000 -29.6980000  10.5110000  24.3000000 -35.9410000
   9.8850000  23.5760000 -35.9170000  10.7290000  24.4590000 -35.0230000
  10.4590000  24.2280000 -35.8210000   7.2490000  25.9480000 -23.8210000
   6.4040000  25.6280000 -23.5040000   7.7220000  25.1570000 -24.0800000
   7.2010000  25.8060000 -23.8130000   4.1760000  31.1340000 -19.4870000
   4.9870000  30.6460000 -19.6290000   3.9070000  31.4110000 -20.3630000
   4.2450000  31.1070000 -19.6180000  16.9770000  21.8150000 -22.6460000
  16.1110000  21.6510000 -23.0170000  17.5590000  21.2230000 -23.1240000
  16.9410000  21.7180000 -22.7550000  16.6830000  27.2650000 -35.9400000
  16.2260000  27.0240000 -35.1340000  17.6090000  27.1250000 -35.7410000
  16.7430000  27.2160000 -35.8110000   6.4380000  30.1740000 -22.4590000
   7.3180000  29.8010000 -22.5110000   5.9000000  29.5930000 -22.9960000
   6.4820000  30.0520000 -22.5340000  14.8080000  22.9820000 -30.3520000
  15.5040000  22.5960000 -30.8850000  14.1980000  22.2600000 -30.1970000
  14.8190000  22.8400000 -30.4010000  12.8820000  28.4310000 -22.8100000
  12.3250000  28.0370000 -23.4820000  12.3060000  29.0410000 -22.3500000
  12.7370000  28.4590000 -22.8370000  16.7960000  27.6920000 -19.6160000
  15.9730000  28.0320000 -19.9650000  16.6520000  27.6360000 -18.6710000
  16.6730000  27.7280000 -19.5400000  10.7090000  24.4180000 -33.2770000
   9.8860000  24.7010000 -32.8810000  11.3870000  24.8040000 -32.7220000
  10.6910000  24.5030000 -33.1550000   3.7210000  28.0090000 -25.1840000
   3.3440000  27.8820000 -24.3140000   3.1580000  27.4980000 -25.7660000
   3.6010000  27.9280000 -25.1470000  12.7280000  29.5190000 -29.7290000
  13.2730000  30.0200000 -29.1220000  12.0340000  30.1260000 -29.9860000
  12.7090000  29.6600000 -29.6840000   0.7110000  31.0850000 -28.9080000
   1.1050000  31.0150000 -29.7780000   1.3230000  30.6300000 -28.3310000
   0.8400000  31.0180000 -28.9460000  15.4320000  26.7650000 -33.5360000
  15.3890000  27.3840000 -32.8060000  15.0660000  25.9540000 -33.1840000
  15.3800000  26.7410000 -33.3970000  10.1820000  27.6290000 -33.0570000
   9.5100000  26.9480000 -33.0270000  10.2610000  27.8460000 -33.9860000
  10.1060000  27.5700000 -33.1720000   3.8690000  22.4820000 -19.0940000
   3.7160000  22.7620000 -19.9960000   3.6320000  23.2420000 -18.5630000
   3.8190000  22.6150000 -19.1410000   5.8020000  26.6030000 -19.9880000
   5.6870000  26.3190000 -20.8950000   4.9110000  26.7060000 -19.6550000
   5.6730000  26.5800000 -20.0620000   4.8470000  24.9300000 -25.1420000
   4.2570000  24.1910000 -25.2940000   5.4590000  24.9020000 -25.8770000
   4.8500000  24.8320000 -25.2560000   6.2320000  31.1220000 -27.1100000
   6.1920000  30.1670000 -27.1470000   5.7770000  31.3500000 -26.3000000
   6.1690000  31.0290000 -27.0110000  14.1970000  27.7750000 -20.4280000
  13.5060000  27.1350000 -20.2600000  13.9890000  28.1310000 -21.2910000
  14.0820000  27.7380000 -20.5170000  -0.1850000  26.8770000 -33.2910000
   0.4800000  27.4770000 -32.9530000  -1.0170000  27.3110000 -33.1020000
  -0.2060000  27.0090000 -33.2230000   7.5620000  30.0580000 -36.0020000
   7.1790000  29.7490000 -36.8230000   7.8010000  30.9690000 -36.1770000
   7.5440000  30.1350000 -36.1290000   1.8180000  21.5130000 -30.3240000
   1.5800000  20.6940000 -30.7580000   1.0570000  22.0810000 -30.4510000
   1.6900000  21.4810000 -30.3960000   6.3890000  20.3280000 -34.3200000
   6.6340000  19.4530000 -34.0190000   6.1740000  20.8050000 -33.5190000
   6.3930000  20.2770000 -34.1790000  11.6210000  22.0770000 -31.7820000
  11.3270000  22.7920000 -32.3460000  11.3500000  22.3380000 -30.9020000
  11.5490000  22.2020000 -31.7420000   3.2270000  24.5930000 -36.2860000
   2.3020000  24.3500000 -36.2480000   3.2230000  25.5130000 -36.5510000
   3.1090000  24.6800000 -36.3150000   5.1960000  28.9460000 -32.9970000
   6.0190000  29.4320000 -33.0350000   5.2470000  28.4510000 -32.1800000
   5.3080000  28.9450000 -32.8980000   7.4910000  30.5830000 -32.9950000
   6.9680000  31.2860000 -32.6090000   7.5030000  30.7790000 -33.9310000
   7.4260000  30.6980000 -33.0650000  14.5340000  25.4500000 -36.8310000
  15.0120000  25.0970000 -37.5800000  15.0360000  26.2220000 -36.5680000
  14.6590000  25.5040000 -36.8930000   3.4280000  30.8860000 -22.0010000
   3.3900000  31.2030000 -22.9030000   2.5560000  30.5270000 -21.8360000
   3.3110000  30.8800000 -22.0950000  16.3860000  16.5300000 -27.4320000
  16.5320000  16.9350000 -26.5770000  15.4410000  16.5980000 -27.5710000
  16.2840000  16.5900000 -27.3400000   6.3620000  28.5830000 -24.9470000
   6.6870000  27.7800000 -24.5400000   5.4930000  28.3510000 -25.2730000
   6.2920000  28.4510000 -24.9370000   1.9780000  29.5170000 -18.9780000
   2.7810000  30.0270000 -19.0880000   1.5280000  29.9350000 -18.2440000
   2.0230000  29.6360000 -18.8980000  12.4740000  26.6650000 -29.7180000
  12.9720000  26.4580000 -30.5090000  12.6580000  27.5900000 -29.5540000
  12.5610000  26.7570000 -29.7980000   7.0990000  25.4110000 -35.9770000
   6.6180000  24.5940000 -36.1080000   7.5330000  25.5700000 -36.8150000
   7.0930000  25.3270000 -36.1010000   1.0630000  30.4480000 -35.5190000
   1.8300000  30.1250000 -35.0440000   0.3210000  30.2090000 -34.9640000
   1.0660000  30.3760000 -35.3870000   0.4010000  24.2040000 -26.8230000
   1.1990000  23.8540000 -27.2180000   0.3810000  23.8240000 -25.9450000
   0.5000000  24.1100000 -26.7610000   9.7950000  27.2610000 -29.0950000
   9.3880000  28.0210000 -29.5110000  10.6570000  27.1960000 -29.5050000
   9.8530000  27.3500000 -29.2010000  14.3320000  28.5000000 -31.6130000
  15.0060000  28.9120000 -31.0730000  13.5220000  28.9460000 -31.3670000
  14.3150000  28.6100000 -31.5130000   2.4860000  28.9910000 -28.1100000
   3.4430000  28.9750000 -28.1290000   2.2410000  28.1770000 -27.6700000
   2.5770000  28.8850000 -28.0560000  12.7890000  23.0010000 -25.5710000
  12.3350000  23.4430000 -26.2890000  12.2470000  23.1760000 -24.8020000
  12.6620000  23.0800000 -25.5650000  17.9540000  27.9290000 -26.6270000
  17.5650000  27.4550000 -25.8910000  17.4190000  28.7180000 -26.7130000
  17.8360000  27.9690000 -26.5440000  11.3280000  24.4770000 -27.7610000
  11.9540000  24.9270000 -28.3280000  11.1860000  23.6300000 -28.1850000
  11.3900000  24.4260000 -27.8880000  11.3520000  21.2220000 -35.0050000
  10.5930000  21.4700000 -35.5330000  11.9070000  22.0020000 -35.0040000
  11.3260000  21.3540000 -35.0720000   3.8870000  24.5150000 -33.2880000
   3.7970000  24.2440000 -34.2010000   2.9890000  24.6720000 -32.9950000
   3.7600000  24.5010000 -33.3670000  13.4740000  20.4060000 -30.4920000
  12.8120000  20.8120000 -31.0520000  14.1690000  20.1430000 -31.0950000
  13.4780000  20.4250000 -30.6410000  15.0870000  25.6380000 -25.1130000
  14.8220000  24.9860000 -24.4630000  15.3060000  25.1250000 -25.8910000
  15.0810000  25.4890000 -25.1290000   5.8330000  27.4310000 -30.8880000
   6.0210000  26.6790000 -31.4500000   6.6890000  27.8220000 -30.7180000
   5.9660000  27.3850000 -30.9380000   7.4890000  22.2910000 -21.6480000
   8.4110000  22.3670000 -21.4040000   7.0370000  22.9080000 -21.0730000
   7.5490000  22.3790000 -21.5440000   4.4800000  19.3010000 -28.7290000
   4.6510000  20.2220000 -28.5300000   5.0460000  18.8170000 -28.1280000
   4.5740000  19.3570000 -28.6270000   5.3340000  28.4280000 -28.3360000
   5.5910000  28.0100000 -29.1580000   5.4180000  27.7360000 -27.6800000
   5.3780000  28.2860000 -28.3570000  16.1400000  19.1670000 -18.9130000
  15.5990000  18.6520000 -18.3150000  15.6760000  20.0000000 -19.0000000
  16.0120000  19.2080000 -18.8470000  17.5090000  26.7180000 -23.7150000
  16.6130000  26.3930000 -23.8020000  17.4090000  27.6130000 -23.3900000
  17.3810000  26.7910000 -23.6840000   9.7050000  28.4050000 -35.6770000
  10.4350000  29.0250000 -35.6880000   8.9230000  28.9560000 -35.7080000
   9.6980000  28.5550000 -35.6830000   9.3370000  25.7860000 -26.5610000
   8.8880000  25.0320000 -26.1790000  10.0590000  25.4060000 -27.0610000
   9.3720000  25.6410000 -26.5760000  10.8720000  29.9100000 -24.8490000
  10.5960000  30.7340000 -24.4470000  11.8230000  29.8970000 -24.7400000
  10.9590000  30.0140000 -24.7840000   6.3600000  22.5230000 -32.5780000
   6.2120000  23.4660000 -32.6560000   5.5680000  22.1910000 -32.1540000
   6.2400000  22.6010000 -32.5340000  10.0110000  22.8670000 -20.1590000
   9.5450000  23.4650000 -19.5750000  10.6060000  23.4310000 -20.6540000
  10.0270000  23.0150000 -20.1480000   5.6160000  23.0120000 -35.9830000
   4.6990000  22.7970000 -35.8170000   6.0910000  22.6240000 -35.2480000
   5.5590000  22.9350000 -35.8680000   2.2580000  27.7580000 -22.7120000
   1.5790000  28.3970000 -22.4920000   1.8490000  26.9090000 -22.5490000
   2.1180000  27.7310000 -22.6630000   0.4060000  20.6670000 -24.1300000
   1.2680000  20.6280000 -23.7160000   0.5920000  20.8170000 -25.0570000
   0.5400000  20.6810000 -24.1960000  11.3230000  28.2000000 -26.7630000
  11.0550000  28.8430000 -26.1060000  10.5240000  28.0180000 -27.2590000
  11.1860000  28.2590000 -26.7430000  -0.1350000  25.8380000 -20.1430000
  -0.7350000  26.5710000 -20.0020000   0.4120000  25.8210000 -19.3570000
  -0.1420000  25.9300000 -20.0240000   1.2210000  24.7390000 -32.1000000
   1.6210000  25.3240000 -31.4560000   0.7570000  25.3240000 -32.6990000
   1.2130000  24.8890000 -32.0940000  11.3000000  26.5340000 -24.2010000
  11.1370000  26.8430000 -25.0920000  10.4390000  26.2700000 -23.8780000
  11.1690000  26.5400000 -24.2730000  11.5220000  20.7550000 -20.0630000
  11.5190000  20.4650000 -20.9750000  10.8500000  21.4360000 -20.0260000
  11.4350000  20.8050000 -20.1750000   3.1810000  19.4180000 -36.0550000
   3.1820000  20.1600000 -35.4510000   3.6850000  19.7220000 -36.8090000
   3.2460000  19.5520000 -36.0740000  11.2320000  30.1970000 -21.6650000
  10.4140000  30.0410000 -22.1360000  11.2800000  31.1490000 -21.5760000
  11.1340000  30.2990000 -21.7140000  15.5820000  24.8930000 -20.4340000
  16.2950000  24.2610000 -20.3390000  16.0220000  25.7300000 -20.5800000
  15.7290000  24.9190000 -20.4410000   1.6110000  26.6750000 -26.9120000
   0.8320000  27.1810000 -26.6810000   1.3490000  25.7620000 -26.7890000
   1.4780000  26.6230000 -26.8670000   4.7070000  30.8320000 -29.8060000
   4.6200000  31.6120000 -29.2570000   4.7790000  30.1080000 -29.1830000
   4.7050000  30.8390000 -29.6560000   0.3380000  21.9160000 -34.6010000
   0.2810000  21.6620000 -35.5220000  -0.2100000  22.6980000 -34.5330000
   0.2610000  21.9840000 -34.7100000   4.8090000  25.9730000 -22.6220000
   4.7180000  25.8530000 -23.5670000   4.0850000  26.5510000 -22.3840000
   4.7050000  26.0320000 -22.7130000   5.8910000  19.4890000 -31.1700000
   5.4860000  19.1580000 -30.3680000   5.9980000  18.7150000 -31.7220000
   5.8530000  19.3480000 -31.1380000   6.4340000  25.5350000 -33.2840000
   6.8070000  25.4700000 -34.1630000   5.5290000  25.2390000 -33.3850000
   6.3660000  25.4880000 -33.4090000   8.5790000  22.4320000 -30.8990000
   7.7270000  22.2940000 -31.3110000   8.6290000  23.3790000 -30.7630000
   8.4770000  22.5360000 -30.9340000   3.4510000  23.1000000 -21.7080000
   4.2420000  23.1330000 -22.2450000   3.0910000  23.9860000 -21.7560000
   3.5060000  23.2170000 -21.7830000   9.6240000  26.1030000 -37.6600000
   9.6050000  26.7530000 -36.9580000   9.9790000  25.3150000 -37.2480000
   9.6670000  26.0860000 -37.5180000  14.6070000  21.3530000 -20.2390000
  14.6680000  21.0060000 -21.1290000  13.6670000  21.4010000 -20.0650000
  14.4940000  21.3150000 -20.3310000   9.2970000  20.6060000 -32.8080000
   9.0720000  21.3910000 -32.3090000  10.1960000  20.7580000 -33.1000000
   9.3840000  20.7260000 -32.7810000  14.7240000  20.3260000 -27.9380000
  15.5950000  19.9330000 -27.8810000  14.6250000  20.5570000 -28.8610000
  14.8230000  20.3050000 -28.0490000  11.6320000  20.5930000 -22.8040000
  11.3720000  19.8170000 -23.3010000  12.5880000  20.5980000 -22.8520000
  11.7210000  20.4940000 -22.8740000  14.7490000  24.1910000 -32.6900000
  14.5280000  23.9410000 -31.7920000  15.5650000  23.7250000 -32.8730000
  14.8250000  24.0990000 -32.5980000   8.5520000  22.7410000 -27.5230000
   7.7010000  22.3100000 -27.6100000   8.6510000  22.8880000 -26.5820000
   8.4550000  22.7050000 -27.4140000   7.1830000  19.7620000 -20.3720000
   6.6300000  20.0730000 -19.6560000   7.2440000  20.5080000 -20.9690000
   7.1200000  19.8970000 -20.3570000  17.4400000  24.2150000 -34.8540000
  16.6170000  23.7280000 -34.9020000  17.1880000  25.0790000 -34.5260000
  17.3030000  24.2630000 -34.8180000  14.4970000  31.5480000 -20.8350000
  13.8570000  31.0150000 -20.3630000  14.4590000  31.2250000 -21.7360000
  14.4100000  31.4380000 -20.8900000   2.5270000  22.8960000 -27.9090000
   2.4330000  22.4290000 -28.7390000   3.3500000  22.5730000 -27.5440000
   2.6200000  22.7950000 -27.9680000  17.1640000  29.3850000 -23.0180000
  16.2730000  29.6010000 -22.7400000  17.4410000  30.1380000 -23.5400000
  17.0850000  29.5090000 -23.0490000   4.6900000  22.1540000 -26.6530000
   5.1420000  21.5750000 -26.0390000   5.2530000  22.1690000 -27.4260000
   4.8200000  22.0820000 -26.6730000   1.2720000  25.2540000 -22.3840000
   0.7060000  25.6150000 -23.0660000   0.7760000  25.3700000 -21.5740000
   1.1360000  25.3150000 -22.3680000  14.5910000  30.4240000 -23.2340000
  13.9810000  29.6880000 -23.1780000  14.1590000  31.0480000 -23.8170000
  14.4580000  30.4090000 -23.3010000   3.6890000  31.0120000 -24.8090000
   3.2280000  31.3560000 -25.5740000   3.7700000  30.0740000 -24.9810000
   3.6400000  30.9360000 -24.9290000   1.8850000  28.6530000 -32.6240000
   2.8410000  28.6850000 -32.5970000   1.6140000  29.5700000 -32.5860000
   1.9730000  28.7740000 -32.6160000   6.7250000  24.1120000 -19.6810000
   5.9600000  23.7150000 -19.2630000   6.4710000  25.0230000 -19.8290000
   6.5940000  24.1780000 -19.6460000   3.2440000  21.9430000 -34.6530000
   3.5520000  22.0080000 -33.7490000   2.3260000  21.6850000 -34.5740000
   3.1660000  21.9180000 -34.5270000  12.5530000  26.2040000 -32.2690000
  13.1730000  26.6480000 -32.8480000  11.7430000  26.7080000 -32.3540000
  12.5290000  26.3260000 -32.3540000   8.2640000  28.6670000 -30.8960000
   8.7780000  28.0670000 -31.4360000   7.9900000  29.3570000 -31.5000000
   8.2940000  28.6780000 -31.0420000  14.3060000  21.8960000 -23.3370000
  14.0190000  22.7220000 -22.9460000  14.0830000  21.9800000 -24.2640000
  14.2400000  22.0130000 -23.4050000  18.3210000  23.2320000 -30.8510000
  18.9030000  23.7170000 -31.4370000  17.7550000  23.9020000 -30.4680000
  18.3230000  23.3800000 -30.8770000  12.7000000  30.0080000 -19.5430000
  11.8890000  30.0460000 -20.0500000  13.0640000  29.1450000 -19.7380000
  12.6430000  29.9030000 -19.6330000   6.0400000  22.0510000 -28.9850000
   5.8620000  22.6410000 -29.7170000   6.5250000  21.3240000 -29.3750000
   6.0790000  22.0340000 -29.1280000  -0.3550000  28.6410000 -30.4080000
   0.2420000  28.8970000 -31.1120000  -0.0520000  29.1360000 -29.6460000
  -0.2400000  28.7370000 -30.4010000  16.0140000  29.7380000 -29.6220000
  16.8670000  29.3970000 -29.8920000  16.0360000  29.7090000 -28.6660000
  16.1260000  29.6900000 -29.5350000   8.9440000  26.6490000 -21.7170000
   8.1900000  26.3190000 -22.2060000   8.7430000  26.4510000 -20.8030000
   8.8220000  26.5810000 -21.6630000  12.4940000  25.9720000 -19.6480000
  11.7100000  25.9330000 -19.1000000  13.1310000  25.4210000 -19.1940000
  12.4750000  25.8970000 -19.5200000  18.0900000  19.7640000 -30.1140000
  17.4940000  19.4140000 -29.4520000  18.8080000  19.1320000 -30.1490000
  18.1060000  19.6390000 -30.0340000  14.1600000  30.4090000 -34.4070000
  14.5560000  30.7500000 -33.6050000  14.6510000  30.8280000 -35.1140000
  14.2730000  30.5060000 -34.3950000  13.8890000  24.4950000 -22.4450000
  14.5820000  24.6890000 -21.8130000  13.2530000  25.2010000 -22.3270000
  13.8960000  24.6100000 -22.3490000   6.4660000  21.4360000 -42.9860000
   6.6940000  21.4080000 -42.0570000   5.8370000  20.7240000 -43.0990000
   6.4150000  21.3410000 -42.8810000   4.3820000  19.7220000 -43.4800000
   3.8220000  20.1700000 -42.8460000   4.2360000  18.7910000 -43.3130000
   4.2920000  19.6600000 -43.3780000   8.5960000  23.1720000 -43.6270000
   7.9930000  22.5310000 -43.2520000   9.3850000  23.1030000 -43.0890000
   8.6200000  23.0820000 -43.5100000   9.1340000  19.6090000 -37.3490000
  10.0260000  19.3800000 -37.6130000   8.6120000  19.4880000 -38.1420000
   9.1820000  19.5650000 -37.4840000  11.0190000  22.9980000 -42.3580000
  11.1970000  22.1160000 -42.0330000  11.3380000  23.5780000 -41.6670000
  11.0830000  22.9590000 -42.2280000   8.9090000  29.2330000 -41.5870000
   8.7810000  28.3680000 -41.1980000   9.3520000  29.0580000 -42.4180000
   8.9490000  29.1000000 -41.6440000   0.0330000  23.5630000 -43.0300000
   0.3100000  24.1320000 -42.3120000  -0.5690000  22.9400000 -42.6230000
  -0.0080000  23.5560000 -42.8860000   0.9060000  29.9000000 -40.4370000
  -0.0150000  29.6800000 -40.5770000   0.9860000  30.0070000 -39.4900000
   0.7980000  29.8850000 -40.3340000   2.7270000  20.5650000 -41.4420000
   2.9340000  21.4630000 -41.1850000   2.3710000  20.1640000 -40.6490000
   2.7080000  20.6280000 -41.3080000  11.0750000  25.0540000 -40.4430000
  11.6610000  25.3670000 -39.7540000  10.3490000  25.6790000 -40.4430000
  11.0570000  25.1740000 -40.3550000   0.5960000  23.5670000 -37.3890000
   0.3980000  23.6480000 -38.3210000  -0.1980000  23.8700000 -36.9470000
   0.4690000  23.6160000 -37.4520000   6.6700000  26.1300000 -45.9660000
   7.5510000  26.4220000 -45.7330000   6.7560000  25.7960000 -46.8580000
   6.7940000  26.1250000 -46.0510000  10.9670000  21.9490000 -47.7820000
  10.0150000  21.8860000 -47.7110000  11.2950000  21.2210000 -47.2540000
  10.8870000  21.8480000 -47.7050000  16.0960000  29.9570000 -45.6600000
  16.5360000  30.4640000 -44.9770000  15.4240000  29.4600000 -45.1940000
  16.0670000  29.9580000 -45.5130000   6.6160000  29.4780000 -38.5960000
   6.4590000  28.5340000 -38.6320000   6.5270000  29.7700000 -39.5030000
   6.5840000  29.3940000 -38.7170000  16.0880000  24.1220000 -46.5910000
  17.0000000  24.1330000 -46.2980000  16.0880000  23.5370000 -47.3490000
  16.2050000  24.0480000 -46.6500000  13.9330000  28.4590000 -44.7400000
  13.0580000  28.2020000 -45.0300000  14.2850000  27.6760000 -44.3150000
  13.8660000  28.3260000 -44.7230000   0.8440000  20.3640000 -46.0270000
   1.6780000  20.8180000 -46.1510000   0.2560000  20.7630000 -46.6670000
   0.8760000  20.4730000 -46.1240000   1.9430000  19.4970000 -39.0150000
   1.1100000  19.0700000 -38.8140000   1.9100000  20.3240000 -38.5350000
   1.8320000  19.5480000 -38.9280000   8.2780000  24.9590000 -48.2770000
   8.3640000  24.1750000 -47.7330000   8.7180000  25.6460000 -47.7770000
   8.3450000  24.9470000 -48.1440000  16.9400000  22.5770000 -38.9370000
  16.0410000  22.2490000 -38.9420000  17.2650000  22.4000000 -39.8190000
  16.8660000  22.5120000 -39.0500000  21.1180000  26.3640000 -48.6840000
  21.1320000  26.0510000 -47.7790000  21.0690000  27.3170000 -48.6070000
  21.1140000  26.4460000 -48.5580000   7.2490000  25.9480000 -42.6810000
   6.4040000  25.6280000 -42.3640000   7.7220000  25.1570000 -42.9400000
   7.2010000  25.8060000 -42.6730000   4.1760000  31.1340000 -38.3470000
   4.9870000  30.6460000 -38.4890000   3.9070000  31.4110000 -39.2230000
   4.2450000  31.1070000 -38.4780000  16.9770000  21.8150000 -41.5060000
  16.1110000  21.6510000 -41.8770000  17.5590000  21.2230000 -41.9830000
  16.9410000  21.7180000 -41.6150000   6.4380000  30.1740000 -41.3190000
   7.3180000  29.8010000 -41.3710000   5.9000000  29.5930000 -41.8560000
   6.4820000  30.0520000 -41.3940000  12.8820000  28.4310000 -41.6700000
  12.3250000  28.0370000 -42.3420000  12.3060000  29.0410000 -41.2100000
  12.7370000  28.4590000 -41.6970000  16.7960000  27.6920000 -38.4760000
  15.9730000  28.0320000 -38.8250000  16.6520000  27.6360000 -37.5310000
  16.6730000  27.7280000 -38.4000000   3.7210000  28.0090000 -44.0440000
   3.3440000  27.8820000 -43.1740000   3.1580000  27.4980000 -44.6260000
   3.6010000  27.9280000 -44.0070000  12.7280000  29.5190000 -48.5890000
  13.2730000  30.0200000 -47.9820000  12.0340000  30.1260000 -48.8460000
  12.7090000  29.6600000 -48.5440000   0.7110000  31.0850000 -47.7680000
   1.1050000  31.0150000 -48.6380000   1.3230000  30.6300000 -47.1900000
   0.8400000  31.0180000 -47.8060000   3.8690000  22.4820000 -37.9530000
   3.7160000  22.7620000 -38.8560000   3.6320000  23.2420000 -37.4230000
   3.8190000  22.6150000 -38.0010000   5.8020000  26.6030000 -38.8480000
   5.6870000  26.3190000 -39.7550000   4.9110000  26.7060000 -38.5150000
   5.6730000  26.5800000 -38.9220000   4.8470000  24.9300000 -44.0020000
   4.2570000  24.1910000 -44.1540000   5.4590000  24.9020000 -44.7370000
   4.8500000  24.8320000 -44.1160000   6.2320000  31.1220000 -45.9700000
   6.1920000  30.1670000 -46.0070000   5.7770000  31.3500000 -45.1600000
   6.1690000  31.0290000 -45.8710000  14.1970000  27.7750000 -39.2880000
  13.5060000  27.1350000 -39.1200000  13.9890000  28.1310000 -40.1510000
  14.0820000  27.7380000 -39.3770000   3.4280000  30.8860000 -40.8610000
   3.3900000  31.2030000 -41.7630000   2.5560000  30.5270000 -40.6960000
   3.3110000  30.8800000 -40.9550000  16.3860000  16.5300000 -46.2920000
  16.5320000  16.9350000 -45.4370000  15.4410000  16.5980000 -46.4310000
  16.2840000  16.5900000 -46.2000000   6.3620000  28.5830000 -43.8070000
   6.6870000  27.7800000 -43.4000000   5.4930000  28.3510000 -44.1330000
   6.2920000  28.4510000 -43.7970000   1.9780000  29.5170000 -37.8380000
   2.7810000  30.0270000 -37.9470000   1.5280000  29.9350000 -37.1040000
   2.0230000  29.6360000 -37.7580000   0.4010000  24.2040000 -45.6830000
   1.1990000  23.8540000 -46.0780000   0.3810000  23.8240000 -44.8050000
   0.5000000  24.1100000 -45.6210000   9.7950000  27.2610000 -47.9550000
   9.3880000  28.0210000 -48.3710000  10.6570000  27.1960000 -48.3650000
   9.8530000  27.3500000 -48.0610000   2.4860000  28.9910000 -46.9700000
   3.4430000  28.9750000 -46.9890000   2.2410000  28.1770000 -46.5300000
   2.5770000  28.8850000 -46.9160000  12.7890000  23.0010000 -44.4310000
  12.3350000  23.4430000 -45.1490000  12.2470000  23.1760000 -43.6620000
  12.6620000  23.0800000 -44.4250000  17.9540000  27.9290000 -45.4870000
  17.5650000  27.4550000 -44.7510000  17.4190000  28.7180000 -45.5730000
  17.8360000  27.9690000 -45.4040000  11.3280000  24.4770000 -46.6210000
  11.9540000  24.9270000 -47.1880000  11.1860000  23.6300000 -47.0450000
  11.3900000  24.4260000 -46.7480000  15.0870000  25.6380000 -43.9730000
  14.8220000  24.9860000 -43.3230000  15.3060000  25.1250000 -44.7510000
  15.0810000  25.4890000 -43.9890000   7.4890000  22.2910000 -40.5080000
   8.4110000  22.3670000 -40.2640000   7.0370000  22.9080000 -39.9330000
   7.5490000  22.3790000 -40.4040000   4.4800000  19.3010000 -47.5890000
   4.6510000  20.2220000 -47.3900000   5.0460000  18.8170000 -46.9880000
   4.5740000  19.3570000 -47.4870000   5.3340000  28.4280000 -47.1960000
   5.5910000  28.0100000 -48.0180000   5.4180000  27.7360000 -46.5400000
   5.3780000  28.2860000 -47.2170000  16.1400000  19.1670000 -37.7730000
  15.5990000  18.6520000 -37.1750000  15.6760000  20.0000000 -37.8600000
  16.0120000  19.2080000 -37.7070000  17.5090000  26.7180000 -42.5750000
  16.6130000  26.3930000 -42.6620000  17.4090000  27.6130000 -42.2500000
  17.3810000  26.7910000 -42.5440000   9.3370000  25.7860000 -45.4210000
   8.8880000  25.0320000 -45.0390000  10.0590000  25.4060000 -45.9210000
   9.3720000  25.6410000 -45.4360000  10.8720000  29.9100000 -43.7090000
  10.5960000  30.7340000 -43.3070000  11.8230000  29.8970000 -43.6000000
  10.9590000  30.0140000 -43.6440000  10.0110000  22.8670000 -39.0190000
   9.5450000  23.4650000 -38.4350000  10.6060000  23.4310000 -39.5140000
  10.0270000  23.0150000 -39.0080000   2.2580000  27.7580000 -41.5720000
   1.5790000  28.3970000 -41.3520000   1.8490000  26.9090000 -41.4090000
   2.1180000  27.7310000 -41.5230000   0.4060000  20.6670000 -42.9900000
   1.2680000  20.6280000 -42.5760000   0.5920000  20.8170000 -43.9170000
   0.5400000  20.6810000 -43.0560000  11.3230000  28.2000000 -45.6230000
  11.0550000  28.8430000 -44.9650000  10.5240000  28.0180000 -46.1190000
  11.1860000  28.2590000 -45.6030000  -0.1350000  25.8380000 -39.0030000
  -0.7350000  26.5710000 -38.8620000   0.4120000  25.8210000 -38.2170000
  -0.1420000  25.9300000 -38.8840000  11.3000000  26.5340000 -43.0610000
  11.1370000  26.8430000 -43.9520000  10.4390000  26.2700000 -42.7380000
  11.1690000  26.5400000 -43.1330000  11.5220000  20.7550000 -38.9230000
  11.5190000  20.4650000 -39.8350000  10.8500000  21.4360000 -38.8860000
  11.4350000  20.8050000 -39.0350000  11.2320000  30.1970000 -40.5250000
  10.4140000  30.0410000 -40.9960000  11.2800000  31.1490000 -40.4360000
  11.1340000  30.2990000 -40.5740000  15.5820000  24.8930000 -39.2940000
  16.2950000  24.2610000 -39.1990000  16.0220000  25.7300000 -39.4400000
  15.7290000  24.9190000 -39.3010000   1.6110000  26.6750000 -45.7720000
   0.8320000  27.1810000 -45.5410000   1.3490000  25.7620000 -45.6490000
   1.4780000  26.6230000 -45.7270000   4.7070000  30.8320000 -48.6660000
   4.6200000  31.6120000 -48.1170000   4.7790000  30.1080000 -48.0430000
   4.7050000  30.8390000 -48.5160000   4.8090000  25.9730000 -41.4820000
   4.7180000  25.8530000 -42.4270000   4.0850000  26.5510000 -41.2440000
   4.7050000  26.0320000 -41.5730000   3.4510000  23.1000000 -40.5680000
   4.2420000  23.1330000 -41.1050000   3.0910000  23.9860000 -40.6160000
   3.5060000  23.2170000 -40.6430000  14.6070000  21.3530000 -39.0990000
  14.6680000  21.0060000 -39.9890000  13.6670000  21.4010000 -38.9250000
  14.4940000  21.3150000 -39.1910000  14.7240000  20.3260000 -46.7980000
  15.5950000  19.9330000 -46.7410000  14.6250000  20.5570000 -47.7210000
  14.8230000  20.3050000 -46.9090000  11.6320000  20.5930000 -41.6640000
  11.3720000  19.8170000 -42.1610000  12.5880000  20.5980000 -41.7120000
  11.7210000  20.4940000 -41.7330000   8.5520000  22.7410000 -46.3830000
   7.7010000  22.3100000 -46.4700000   8.6510000  22.8880000 -45.4420000
   8.4550000  22.7050000 -46.2740000   7.1830000  19.7620000 -39.2320000
   6.6300000  20.0730000 -38.5160000   7.2440000  20.5080000 -39.8290000
   7.1200000  19.8970000 -39.2170000  14.4970000  31.5480000 -39.6950000
  13.8570000  31.0150000 -39.2230000  14.4590000  31.2250000 -40.5960000
  14.4100000  31.4380000 -39.7500000   2.5270000  22.8960000 -46.7690000
   2.4330000  22.4290000 -47.5990000   3.3500000  22.5730000 -46.4040000
   2.6200000  22.7950000 -46.8280000  17.1640000  29.3850000 -41.8780000
  16.2730000  29.6010000 -41.6000000  17.4410000  30.1380000 -42.4000000
  17.0850000  29.5090000 -41.9090000   4.6900000  22.1540000 -45.5130000
   5.1420000  21.5750000 -44.8990000   5.2530000  22.1690000 -46.2860000
   4.8200000  22.0820000 -45.5330000   1.2720000  25.2540000 -41.2440000
   0.7060000  25.6150000 -41.9260000   0.7760000  25.3700000 -40.4340000
   1.1360000  25.3150000 -41.2280000  14.5910000  30.4240000 -42.0940000
  13.9810000  29.6880000 -42.0380000  14.1590000  31.0480000 -42.6770000
  14.4580000  30.4090000 -42.1610000   3.6890000  31.0120000 -43.6690000
   3.2280000  31.3560000 -44.4340000   3.7700000  30.0740000 -43.8400000
   3.6400000  30.9360000 -43.7890000   6.7250000  24.1120000 -38.5410000
   5.9600000  23.7150000 -38.1230000   6.4710000  25.0230000 -38.6890000
   6.5940000  24.1780000 -38.5060000  14.3060000  21.8960000 -42.1970000
  14.0190000  22.7220000 -41.8060000  14.0830000  21.9800000 -43.1240000
  14.2400000  22.0130000 -42.2650000  12.7000000  30.0080000 -38.4030000
  11.8890000  30.0460000 -38.9100000  13.0640000  29.1450000 -38.5980000
  12.6430000  29.9030000 -38.4930000   6.0400000  22.0510000 -47.8450000
   5.8620000  22.6410000 -48.5770000   6.5250000  21.3240000 -48.2350000
   6.0790000  22.0340000 -47.9880000  16.0140000  29.7380000 -48.4820000
  16.8670000  29.3970000 -48.7520000  16.0360000  29.7090000 -47.5260000
  16.1260000  29.6900000 -48.3950000   8.9440000  26.6490000 -40.5770000
   8.1900000  26.3190000 -41.0650000   8.7430000  26.4510000 -39.6630000
   8.8220000  26.5810000 -40.5230000  12.4940000  25.9720000 -38.5080000
  11.7100000  25.9330000 -37.9600000  13.1310000  25.4210000 -38.0540000
  12.4750000  25.8970000 -38.3800000  18.0900000  19.7640000 -48.9740000
  17.4940000  19.4140000 -48.3120000  18.8080000  19.1320000 -49.0090000
  18.1060000  19.6390000 -48.8940000  13.8890000  24.4950000 -41.3050000
  14.5820000  24.6890000 -40.6730000  13.2530000  25.2010000 -41.1870000
  13.8960000  24.6100000 -41.2090000   8.6300000  14.1990000  44.7380000
   8.4560000  14.3600000  45.6650000   7.8650000  13.7130000  44.4320000
   8.5100000  14.1570000  44.8180000   5.2010000   9.0960000  40.0680000
   5.0470000   9.5530000  40.8950000   5.9130000   8.4860000  40.2600000
   5.2720000   9.0760000  40.1980000  15.3620000  15.2550000  38.2550000
  14.5000000  15.5830000  37.9980000  15.2660000  14.3030000  38.2530000
  15.2390000  15.1750000  38.2220000   2.0880000  15.3520000  45.0320000
   2.1260000  16.2450000  44.6870000   1.2890000  15.3310000  45.5580000
   1.9910000  15.4640000  45.0550000   6.7990000  17.1420000  41.7200000
   6.0000000  16.6150000  41.7300000   7.1430000  17.0390000  40.8330000
   6.7410000  17.0610000  41.6080000  10.7070000  12.1270000  44.1870000
  10.2810000  11.5200000  43.5830000  10.0440000  12.7940000  44.3650000
  10.5680000  12.1350000  44.1330000  16.4590000   2.7590000  43.4400000
  16.5270000   1.8120000  43.3170000  17.3280000   3.0240000  43.7420000
  16.5790000   2.6720000  43.4640000  17.5780000   7.0500000  45.2820000
  16.7990000   7.1600000  45.8270000  17.9220000   7.9360000  45.1720000
  17.5220000   7.1770000  45.3370000   8.6740000   3.1780000  39.4300000
   8.4080000   2.7150000  40.2240000   8.6900000   2.5010000  38.7530000
   8.6420000   3.0320000  39.4450000  11.7850000  11.3180000  39.7320000
  12.5550000  11.3390000  40.2990000  12.1040000  10.9510000  38.9090000
  11.9240000  11.2740000  39.6990000  17.5210000  10.9550000  41.4630000
  17.1550000  11.5960000  42.0730000  16.7560000  10.5330000  41.0700000
  17.3760000  10.9830000  41.4900000  15.5030000  12.5550000  38.4800000
  15.5450000  12.4210000  37.5320000  16.3890000  12.8220000  38.7220000
  15.6220000  12.5720000  38.3890000  15.8460000   2.9850000  40.5670000
  15.9780000   2.8410000  41.5050000  14.9780000   3.3840000  40.5070000
  15.7520000   3.0170000  40.6800000  12.4960000  14.7220000  45.0680000
  12.6720000  15.5720000  44.6650000  11.7370000  14.3850000  44.5940000
  12.4220000  14.7880000  44.9570000  12.2860000  18.0470000  46.3200000
  12.8720000  18.7840000  46.1450000  11.5040000  18.2330000  45.8020000
  12.2610000  18.1650000  46.2320000   4.6080000   5.3020000  44.8400000
   4.2010000   5.3010000  43.9730000   4.1220000   5.9650000  45.3320000
   4.4940000   5.3870000  44.7930000   4.0350000   2.4890000  43.5580000
   3.2770000   2.4760000  44.1430000   4.5670000   1.7450000  43.8390000
   4.0060000   2.3920000  43.6690000   8.6950000   6.6880000  43.3890000
   7.8700000   6.6700000  42.9040000   8.4440000   6.5020000  44.2940000
   8.5570000   6.6620000  43.4430000   5.8090000  16.3530000  48.0070000
   5.5480000  15.9780000  48.8480000   6.5400000  15.8080000  47.7180000
   5.8690000  16.2350000  48.0770000   4.0470000  14.5460000  46.7220000
   3.3230000  14.8490000  46.1730000   4.6410000  15.2960000  46.7690000
   4.0310000  14.6810000  46.6570000   3.5200000   8.3100000  38.0590000
   2.9170000   9.0470000  37.9640000   4.1490000   8.6000000  38.7200000
   3.5230000   8.4410000  38.1320000   7.9470000  16.7720000  39.3520000
   8.4060000  15.9500000  39.5240000   8.6450000  17.4120000  39.2140000
   8.0950000  16.7490000  39.3570000   6.6700000   7.2630000  48.3340000
   7.5510000   7.5550000  48.5670000   6.7560000   6.9290000  47.4420000
   6.7940000   7.2580000  48.2500000  10.9670000   3.0820000  46.5180000
  10.0150000   3.0190000  46.5890000  11.2950000   2.3540000  47.0470000
  10.8870000   2.9810000  46.5950000  16.0960000  11.0900000  48.6400000
  16.5360000  11.5970000  49.3230000  15.4240000  10.5930000  49.1070000
  16.0670000  11.0910000  48.7870000  10.8230000  13.9190000  39.8070000
  11.1270000  13.0260000  39.9630000  11.3500000  14.4590000  40.3950000
  10.9290000  13.8740000  39.9010000  13.4460000   4.4070000  40.3820000
  13.5500000   4.7510000  41.2690000  13.3160000   5.1830000  39.8380000
  13.4430000   4.5500000  40.4270000  16.0880000   5.2550000  47.7090000
  17.0000000   5.2660000  48.0030000  16.0880000   4.6700000  46.9520000
  16.2050000   5.1810000  47.6500000   5.6750000   1.5810000  38.3690000
   6.0170000   1.5900000  39.2630000   5.1900000   2.4030000  38.2910000
   5.6570000   1.6880000  38.4730000   0.8440000   1.4970000  48.2730000
   1.6780000   1.9510000  48.1500000   0.2560000   1.8960000  47.6330000
   0.8760000   1.6060000  48.1770000   8.2780000   6.0920000  46.0230000
   8.3640000   5.3080000  46.5670000   8.7180000   6.7790000  46.5230000
   8.3450000   6.0800000  46.1570000  16.9560000  14.8320000  41.3600000
  17.0770000  15.7070000  40.9920000  17.1650000  14.2380000  40.6380000
  16.9980000  14.8680000  41.2190000  15.3740000   0.2310000  40.2380000
  15.5020000   1.1460000  39.9860000  14.4250000   0.1360000  40.3220000
  15.2690000   0.3360000  40.2170000   1.3530000  18.3140000  42.5430000
   0.5720000  18.1830000  42.0050000   1.3230000  19.2390000  42.7870000
   1.2490000  18.4160000  42.5050000   7.7060000  14.5800000  47.2320000
   7.2260000  13.7720000  47.4090000   8.4360000  14.5660000  47.8520000
   7.7380000  14.4750000  47.3340000  18.5490000   1.5690000  38.2380000
  18.3730000   2.4100000  37.8170000  17.7400000   1.0700000  38.1240000
  18.4230000   1.6130000  38.1710000  21.1180000   7.4970000  45.6170000
  21.1320000   7.1840000  46.5220000  21.0690000   8.4500000  45.6930000
  21.1140000   7.5790000  45.7430000  10.5110000   5.4330000  39.5000000
   9.8850000   4.7090000  39.5230000  10.7290000   5.5920000  40.4170000
  10.4590000   5.3610000  39.6190000   3.0840000  16.8390000  41.0770000
   2.5020000  17.3370000  41.6500000   3.3130000  17.4500000  40.3760000
   3.0390000  16.9810000  41.0600000  16.6830000   8.3980000  39.5000000
  16.2260000   8.1570000  40.3070000  17.6090000   8.2580000  39.6990000
  16.7430000   8.3490000  39.6300000  14.8080000   4.1150000  45.0890000
  15.5040000   3.7290000  44.5550000  14.1980000   3.3930000  45.2430000
  14.8190000   3.9730000  45.0400000  10.7090000   5.5510000  42.1630000
   9.8860000   5.8340000  42.5590000  11.3870000   5.9370000  42.7180000
  10.6910000   5.6360000  42.2850000  12.7280000  10.6520000  45.7120000
  13.2730000  11.1530000  46.3180000  12.0340000  11.2590000  45.4550000
  12.7090000  10.7930000  45.7570000   0.7110000  12.2180000  46.5320000
   1.1050000  12.1480000  45.6620000   1.3230000  11.7630000  47.1100000
   0.8400000  12.1510000  46.4940000  15.4320000   7.8980000  41.9040000
  15.3890000   8.5170000  42.6350000  15.0660000   7.0870000  42.2570000
  15.3800000   7.8740000  42.0430000  10.1820000   8.7620000  42.3830000
   9.5100000   8.0810000  42.4130000  10.2610000   8.9790000  41.4550000
  10.1060000   8.7030000  42.2680000   6.2320000  12.2550000  48.3300000
   6.1920000  11.3000000  48.2930000   5.7770000  12.4830000  49.1400000
   6.1690000  12.1620000  48.4300000  -0.1850000   8.0100000  42.1500000
   0.4800000   8.6100000  42.4880000  -1.0170000   8.4440000  42.3390000
  -0.2060000   8.1420000  42.2180000   2.1480000  12.4550000  44.3520000
   2.8270000  12.1750000  44.9650000   2.2460000  13.4050000  44.3030000
   2.2470000  12.5410000  44.4250000   7.5620000  11.1910000  39.4390000
   7.1790000  10.8820000  38.6170000   7.8010000  12.1020000  39.2630000
   7.5440000  11.2680000  39.3120000   1.8180000   2.6460000  45.1170000
   1.5800000   1.8270000  44.6830000   1.0570000   3.2140000  44.9890000
   1.6900000   2.6140000  45.0440000   6.3890000   1.4610000  41.1200000
   6.6340000   0.5860000  41.4220000   6.1740000   1.9380000  41.9220000
   6.3930000   1.4100000  41.2610000  11.6210000   3.2100000  43.6580000
  11.3270000   3.9250000  43.0940000  11.3500000   3.4710000  44.5380000
  11.5490000   3.3350000  43.6980000  15.5740000  13.7620000  45.3600000
  14.6590000  13.7720000  45.0770000  15.6960000  12.8940000  45.7440000
  15.4720000  13.6520000  45.3730000   3.2270000   5.7260000  39.1540000
   2.3020000   5.4830000  39.1920000   3.2230000   6.6460000  38.8890000
   3.1090000   5.8130000  39.1250000   5.1960000  10.0790000  42.4430000
   6.0190000  10.5650000  42.4050000   5.2470000   9.5840000  43.2600000
   5.3080000  10.0780000  42.5430000   1.8870000  17.9540000  46.5190000
   1.3450000  18.3770000  47.1870000   2.7860000  18.1510000  46.7820000
   1.9320000  18.0340000  46.6380000   7.4910000  11.7160000  42.4450000
   6.9680000  12.4190000  42.8320000   7.5030000  11.9120000  41.5100000
   7.4260000  11.8310000  42.3750000  14.5340000   6.5830000  38.6100000
  15.0120000   6.2300000  37.8610000  15.0360000   7.3550000  38.8720000
  14.6590000   6.6370000  38.5470000   1.0740000  15.7710000  48.7570000
   1.7290000  16.1320000  48.1600000   0.3960000  15.4160000  48.1830000
   1.0710000  15.7720000  48.6070000  16.3860000  -2.3370000  48.0080000
  16.5320000  -1.9320000  48.8630000  15.4410000  -2.2690000  47.8690000
  16.2840000  -2.2770000  48.1010000  12.4740000   7.7980000  45.7230000
  12.9720000   7.5910000  44.9320000  12.6580000   8.7230000  45.8870000
  12.5610000   7.8900000  45.6420000   7.0990000   6.5440000  39.4640000
   6.6180000   5.7270000  39.3320000   7.5330000   6.7030000  38.6250000
   7.0930000   6.4600000  39.3390000   1.0630000  11.5810000  39.9210000
   1.8300000  11.2580000  40.3970000   0.3210000  11.3420000  40.4760000
   1.0660000  11.5090000  40.0530000  17.1620000  18.5700000  47.7900000
  17.0150000  17.6270000  47.8720000  17.8160000  18.7680000  48.4620000
  17.2270000  18.4740000  47.8870000  18.4950000  14.8480000  46.5770000
  17.6510000  15.2610000  46.7600000  18.3630000  13.9260000  46.7940000
  18.3700000  14.7830000  46.6280000   9.7950000   8.3940000  46.3450000
   9.3880000   9.1540000  45.9300000  10.6570000   8.3290000  45.9350000
   9.8530000   8.4830000  46.2390000  14.3320000   9.6330000  43.8270000
  15.0060000  10.0450000  44.3680000  13.5220000  10.0790000  44.0730000
  14.3150000   9.7430000  43.9280000   2.4860000  10.1240000  47.3300000
   3.4430000  10.1080000  47.3120000   2.2410000   9.3100000  47.7700000
   2.5770000  10.0180000  47.3850000  11.3280000   5.6100000  47.6800000
  11.9540000   6.0600000  47.1130000  11.1860000   4.7630000  47.2550000
  11.3900000   5.5590000  47.5530000  11.3520000   2.3550000  40.4360000
  10.5930000   2.6030000  39.9070000  11.9070000   3.1350000  40.4370000
  11.3260000   2.4870000  40.3680000   3.8870000   5.6480000  42.1530000
   3.7970000   5.3770000  41.2390000   2.9890000   5.8050000  42.4450000
   3.7600000   5.6340000  42.0730000  13.4740000   1.5390000  44.9480000
  12.8120000   1.9450000  44.3880000  14.1690000   1.2760000  44.3450000
  13.4780000   1.5580000  44.8000000   5.8330000   8.5640000  44.5530000
   6.0210000   7.8120000  43.9900000   6.6890000   8.9550000  44.7230000
   5.9660000   8.5180000  44.5030000   4.4800000   0.4340000  46.7120000
   4.6510000   1.3550000  46.9100000   5.0460000  -0.0500000  47.3120000
   4.5740000   0.4900000  46.8140000   8.2830000  13.7710000  38.8360000
   9.1270000  13.7330000  39.2870000   8.5060000  13.9760000  37.9280000
   8.4200000  13.7920000  38.7780000   5.3340000   9.5610000  47.1050000
   5.5910000   9.1430000  46.2820000   5.4180000   8.8690000  47.7600000
   5.3780000   9.4190000  47.0830000  12.6460000  14.0160000  47.5640000
  12.7440000  14.2630000  46.6430000  11.7920000  14.3660000  47.8150000
  12.5490000  14.0920000  47.4780000  10.0360000  18.4300000  44.9030000
   9.8510000  17.6030000  44.4570000   9.7240000  19.1030000  44.2970000
   9.9720000  18.4100000  44.7670000  11.6240000  17.6650000  37.9920000
  11.7820000  18.5040000  37.5590000  11.8860000  17.8120000  38.9010000
  11.6780000  17.7910000  38.0530000  13.7340000  16.4420000  48.1020000
  13.1900000  17.0420000  47.5920000  13.3430000  15.5810000  47.9570000
  13.6150000  16.4090000  48.0180000   7.8260000  18.8100000  47.0760000
   7.7920000  18.1230000  47.7400000   8.3020000  18.4150000  46.3450000
   7.8820000  18.6720000  47.0680000   9.7050000   9.5380000  39.7630000
  10.4350000  10.1580000  39.7530000   8.9230000  10.0890000  39.7320000
   9.6980000   9.6880000  39.7570000   9.3370000   6.9190000  48.8800000
   8.8880000   6.1650000  49.2620000  10.0590000   6.5390000  48.3800000
   9.3720000   6.7740000  48.8640000   6.3600000   3.6560000  42.8630000
   6.2120000   4.5990000  42.7840000   5.5680000   3.3240000  43.2870000
   6.2400000   3.7340000  42.9070000  10.2280000  18.2660000  48.8400000
  11.0180000  18.8040000  48.7870000   9.6280000  18.6580000  48.2070000
  10.2520000  18.3850000  48.7530000   5.6160000   4.1450000  39.4570000
   4.6990000   3.9300000  39.6230000   6.0910000   3.7570000  40.1920000
   5.5590000   4.0680000  39.5720000  13.2180000  16.8960000  43.6930000
  12.8500000  17.4770000  44.3570000  14.1090000  17.2190000  43.5580000
  13.2850000  17.0120000  43.7600000  11.3230000   9.3330000  48.6780000
  11.0550000   9.9760000  49.3350000  10.5240000   9.1510000  48.1820000
  11.1860000   9.3920000  48.6980000   1.2210000   5.8720000  43.3400000
   1.6210000   6.4570000  43.9850000   0.7570000   6.4570000  42.7420000
   1.2130000   6.0220000  43.3470000   3.1810000   0.5510000  39.3850000
   3.1820000   1.2930000  39.9890000   3.6850000   0.8550000  38.6320000
   3.2460000   0.6850000  39.3670000   4.0970000  12.5870000  39.6690000
   4.1830000  12.5360000  38.7170000   3.5440000  13.3550000  39.8180000
   4.0370000  12.6790000  39.5670000   1.6110000   7.8080000  48.5280000
   0.8320000   8.3140000  48.7600000   1.3490000   6.8950000  48.6520000
   1.4780000   7.7560000  48.5730000   4.7070000  11.9650000  45.6350000
   4.6200000  12.7450000  46.1830000   4.7790000  11.2410000  46.2570000
   4.7050000  11.9720000  45.7840000   0.3380000   3.0490000  40.8390000
   0.2810000   2.7950000  39.9180000  -0.2100000   3.8310000  40.9070000
   0.2610000   3.1170000  40.7300000   5.8910000   0.6220000  44.2700000
   5.4860000   0.2910000  45.0730000   5.9980000  -0.1520000  43.7180000
   5.8530000   0.4810000  44.3030000  16.9760000  16.0810000  44.0100000
  17.0460000  15.4520000  44.7270000  17.0420000  15.5490000  43.2180000
  16.9930000  15.9330000  44.0000000   6.4340000   6.6680000  42.1570000
   6.8070000   6.6030000  41.2780000   5.5290000   6.3720000  42.0550000
   6.3660000   6.6210000  42.0320000   6.1330000  13.8250000  40.5910000
   5.4010000  13.3360000  40.2140000   6.7930000  13.8380000  39.8980000
   6.1230000  13.7640000  40.4550000   8.5790000   3.5650000  44.5410000
   7.7270000   3.4270000  44.1300000   8.6290000   4.5120000  44.6780000
   8.4770000   3.6690000  44.5070000   9.6240000   7.2360000  37.7800000
   9.6050000   7.8860000  38.4820000   9.9790000   6.4480000  38.1920000
   9.6670000   7.2190000  37.9220000  11.5860000  16.1150000  41.6500000
  10.9010000  16.0430000  42.3150000  12.3840000  16.2930000  42.1470000
  11.6000000  16.1280000  41.8000000   9.2970000   1.7390000  42.6320000
   9.0720000   2.5240000  43.1320000  10.1960000   1.8910000  42.3400000
   9.3840000   1.8590000  42.6590000  14.7240000   1.4590000  47.5030000
  15.5950000   1.0660000  47.5590000  14.6250000   1.6900000  46.5800000
  14.8230000   1.4380000  47.3920000  14.7490000   5.3240000  42.7500000
  14.5280000   5.0740000  43.6480000  15.5650000   4.8580000  42.5680000
  14.8250000   5.2320000  42.8430000  12.5950000  15.0870000  37.8970000
  12.1950000  15.9550000  37.9470000  12.1190000  14.5660000  38.5440000
  12.4830000  15.1320000  37.9860000   8.5520000   3.8740000  47.9180000
   7.7010000   3.4430000  47.8300000   8.6510000   4.0210000  48.8580000
   8.4550000   3.8380000  48.0270000   5.9740000  13.4080000  43.7530000
   5.3380000  12.9530000  44.3050000   5.4860000  14.1420000  43.3800000
   5.8310000  13.4440000  43.7770000  17.4400000   5.3480000  40.5870000
  16.6170000   4.8610000  40.5380000  17.1880000   6.2120000  40.9150000
  17.3030000   5.3960000  40.6220000   2.5270000   4.0290000  47.5320000
   2.4330000   3.5620000  46.7020000   3.3500000   3.7060000  47.8970000
   2.6200000   3.9280000  47.4730000  16.2320000  12.5400000  42.8550000
  16.2540000  12.6560000  43.8050000  16.4050000  13.4130000  42.5030000
  16.2570000  12.6670000  42.9320000  15.6070000  18.4800000  43.1620000
  15.3430000  18.4450000  42.2430000  16.2290000  17.7590000  43.2600000
  15.6530000  18.3830000  43.0570000  12.7810000  18.4760000  40.6720000
  12.2650000  17.7910000  41.0980000  12.2980000  19.2830000  40.8460000
  12.6530000  18.4910000  40.7500000  12.5180000  20.0190000  48.9730000
  13.2930000  19.8630000  48.4340000  12.4870000  20.9700000  49.0800000
  12.6130000  20.1210000  48.9180000   9.0880000  16.4310000  43.2020000
   8.8500000  15.6180000  43.6470000   8.2830000  16.7090000  42.7650000
   8.9550000  16.3630000  43.2030000   1.8850000   9.7860000  42.8170000
   2.8410000   9.8180000  42.8430000   1.6140000  10.7030000  42.8550000
   1.9730000   9.9070000  42.8250000   3.2440000   3.0760000  40.7870000
   3.5520000   3.1410000  41.6920000   2.3260000   2.8180000  40.8670000
   3.1660000   3.0510000  40.9130000  12.5530000   7.3370000  43.1720000
  13.1730000   7.7810000  42.5930000  11.7430000   7.8410000  43.0870000
  12.5290000   7.4590000  43.0870000   4.8450000  15.4730000  42.4030000
   4.1450000  15.8710000  41.8860000   5.2770000  14.8700000  41.7970000
   4.8110000  15.4470000  42.2600000   8.2640000   9.8000000  44.5440000
   8.7780000   9.2000000  44.0050000   7.9900000  10.4900000  43.9400000
   8.2940000   9.8110000  44.3980000  17.9590000  17.6590000  40.8330000
  18.5460000  17.4820000  40.0980000  17.3680000  18.3390000  40.5100000
  17.9580000  17.7230000  40.6970000   0.7510000  17.1550000  38.5910000
   1.3080000  16.3960000  38.7620000   1.3190000  17.9090000  38.7460000
   0.8950000  17.1540000  38.6320000  18.3210000   4.3650000  44.5890000
  18.9030000   4.8500000  44.0030000  17.7550000   5.0350000  44.9730000
  18.3230000   4.5130000  44.5640000   6.0400000   3.1840000  46.4550000
   5.8620000   3.7740000  45.7230000   6.5250000   2.4570000  46.0650000
   6.0790000   3.1670000  46.3120000  -0.3550000   9.7740000  45.0320000
   0.2420000  10.0300000  44.3280000  -0.0520000  10.2690000  45.7940000
  -0.2400000   9.8700000  45.0400000   2.3260000  13.2810000  48.8370000
   2.5850000  13.9740000  48.2300000   1.4540000  13.5400000  49.1370000
   2.2480000  13.4030000  48.7970000  16.0140000  10.8710000  45.8180000
  16.8670000  10.5300000  45.5480000  16.0360000  10.8420000  46.7750000
  16.1260000  10.8230000  45.9050000  18.0900000   0.8970000  45.3270000
  17.4940000   0.5470000  45.9880000  18.8080000   0.2650000  45.2910000
  18.1060000   0.7720000  45.4070000  14.1600000  11.5420000  41.0330000
  14.5560000  11.8830000  41.8350000  14.6510000  11.9610000  40.3270000
  14.2730000  11.6390000  41.0460000   6.4660000   2.5690000  32.4540000
   6.6940000   2.5410000  33.3830000   5.8370000   1.8570000  32.3410000
   6.4150000   2.4740000  32.5590000   3.8650000  16.7550000  32.7140000
   2.9110000  16.6870000  32.6820000   4.0540000  17.0620000  33.6000000
   3.7670000  16.7860000  32.8230000   4.3820000   0.8550000  31.9600000
   3.8220000   1.3030000  32.5940000   4.2360000  -0.0760000  32.1270000
   4.2920000   0.7930000  32.0620000   9.1340000   0.7420000  38.0910000
  10.0260000   0.5130000  37.8270000   8.6120000   0.6210000  37.2980000
   9.1820000   0.6980000  37.9570000   2.0880000  15.3520000  26.1710000
   2.1260000  16.2450000  25.8270000   1.2890000  15.3310000  26.6970000
   1.9910000  15.4640000  26.1940000  16.4590000   2.7590000  24.5800000
  16.5270000   1.8120000  24.4560000  17.3280000   3.0240000  24.8810000
  16.5790000   2.6720000  24.6030000  17.5780000   7.0500000  26.4210000
  16.7990000   7.1600000  26.9660000  17.9220000   7.9360000  26.3120000
  17.5220000   7.1770000  26.4770000  15.8460000   2.9850000  21.7070000
  15.9780000   2.8410000  22.6440000  14.9780000   3.3840000  21.6470000
  15.7520000   3.0170000  21.8200000  12.4960000  14.7220000  26.2080000
  12.6720000  15.5720000  25.8050000  11.7370000  14.3850000  25.7340000
  12.4220000  14.7880000  26.0960000  12.2860000  18.0470000  27.4600000
  12.8720000  18.7840000  27.2850000  11.5040000  18.2330000  26.9410000
  12.2610000  18.1650000  27.3710000  11.0750000   6.1870000  34.9970000
  11.6610000   6.5000000  35.6860000  10.3490000   6.8120000  34.9970000
  11.0570000   6.3070000  35.0850000   0.5960000   4.7000000  38.0510000
   0.3980000   4.7810000  37.1190000  -0.1980000   5.0030000  38.4920000
   0.4690000   4.7490000  37.9880000   2.6350000  15.0210000  38.1450000
   3.1180000  15.5820000  37.5380000   2.1920000  14.3850000  37.5840000
   2.6400000  15.0120000  37.9960000   6.2610000  16.7570000  36.9430000
   6.8350000  16.6700000  37.7040000   6.2190000  17.6990000  36.7820000
   6.3290000  16.8660000  37.0190000  16.0960000  11.0900000  29.7800000
  16.5360000  11.5970000  30.4630000  15.4240000  10.5930000  30.2460000
  16.0670000  11.0910000  29.9270000  17.3110000  12.8580000  32.0080000
  16.5970000  13.4630000  31.8090000  18.0270000  13.4210000  32.3050000
  17.3120000  13.0070000  32.0210000   6.6160000  10.6110000  36.8440000
   6.4590000   9.6670000  36.8080000   6.5270000  10.9030000  35.9370000
   6.5840000  10.5270000  36.7230000  13.4460000   4.4070000  21.5220000
  13.5500000   4.7510000  22.4090000  13.3160000   5.1830000  20.9770000
  13.4430000   4.5500000  21.5660000  16.0880000   5.2550000  28.8490000
  17.0000000   5.2660000  29.1420000  16.0880000   4.6700000  28.0910000
  16.2050000   5.1810000  28.7900000  13.9330000   9.5920000  30.7000000
  13.0580000   9.3350000  30.4100000  14.2850000   8.8090000  31.1240000
  13.8660000   9.4590000  30.7170000   3.6420000  16.5080000  35.8580000
   3.3900000  17.4120000  36.0490000   4.5470000  16.4430000  36.1610000
   3.7260000  16.6160000  35.9210000  16.9400000   3.7100000  36.5030000
  16.0410000   3.3820000  36.4980000  17.2650000   3.5330000  35.6210000
  16.8660000   3.6450000  36.3900000  16.9560000  14.8320000  22.4990000
  17.0770000  15.7070000  22.1310000  17.1650000  14.2380000  21.7780000
  16.9980000  14.8680000  22.3590000  15.3740000   0.2310000  21.3770000
  15.5020000   1.1460000  21.1250000  14.4250000   0.1360000  21.4620000
  15.2690000   0.3360000  21.3560000   1.3530000  18.3140000  23.6820000
   0.5720000  18.1830000  23.1440000   1.3230000  19.2390000  23.9260000
   1.2490000  18.4160000  23.6440000  11.4040000  14.1160000  35.6330000
  11.9860000  13.9520000  36.3740000  10.8110000  14.8020000  35.9410000
  11.4020000  14.1830000  35.7670000  21.1180000   7.4970000  26.7560000
  21.1320000   7.1840000  27.6610000  21.0690000   8.4500000  26.8330000
  21.1140000   7.5790000  26.8820000   4.1760000  12.2670000  37.0930000
   4.9870000  11.7790000  36.9510000   3.9070000  12.5440000  36.2170000
   4.2450000  12.2400000  36.9620000   3.0840000  16.8390000  22.2160000
   2.5020000  17.3370000  22.7890000   3.3130000  17.4500000  21.5160000
   3.0390000  16.9810000  22.2000000  16.9770000   2.9480000  33.9340000
  16.1110000   2.7840000  33.5630000  17.5590000   2.3560000  33.4570000
  16.9410000   2.8510000  33.8250000  16.6830000   8.3980000  20.6400000
  16.2260000   8.1570000  21.4460000  17.6090000   8.2580000  20.8390000
  16.7430000   8.3490000  20.7690000  15.4270000  15.0180000  32.4780000
  15.0760000  14.9150000  33.3630000  15.5750000  15.9600000  32.3880000
  15.4010000  15.1250000  32.5800000  17.5640000  16.7850000  34.3570000
  17.7620000  16.3900000  35.2070000  16.8930000  17.4400000  34.5480000
  17.5030000  16.8180000  34.4900000  14.8080000   4.1150000  26.2280000
  15.5040000   3.7290000  25.6950000  14.1980000   3.3930000  26.3830000
  14.8190000   3.9730000  26.1790000  12.8820000   9.5640000  33.7700000
  12.3250000   9.1700000  33.0980000  12.3060000  10.1740000  34.2300000
  12.7370000   9.5920000  33.7430000  16.7960000   8.8250000  36.9640000
  15.9730000   9.1650000  36.6150000  16.6520000   8.7690000  37.9090000
  16.6730000   8.8610000  37.0410000  15.4320000   7.8980000  23.0440000
  15.3890000   8.5170000  23.7740000  15.0660000   7.0870000  23.3960000
  15.3800000   7.8740000  23.1830000   3.8690000   3.6150000  37.4860000
   3.7160000   3.8950000  36.5840000   3.6320000   4.3750000  38.0170000
   3.8190000   3.7480000  37.4390000  11.3680000  17.7410000  32.6410000
  10.8190000  17.6720000  31.8610000  11.7320000  16.8640000  32.7570000
  11.3450000  17.6200000  32.5560000   5.8020000   7.7360000  36.5920000
   5.6870000   7.4520000  35.6850000   4.9110000   7.8390000  36.9250000
   5.6730000   7.7130000  36.5180000  14.1970000   8.9080000  36.1520000
  13.5060000   8.2680000  36.3200000  13.9890000   9.2640000  35.2890000
  14.0820000   8.8710000  36.0630000  15.5740000  13.7620000  26.4990000
  14.6590000  13.7720000  26.2160000  15.6960000  12.8940000  26.8840000
  15.4720000  13.6520000  26.5120000   1.8870000  17.9540000  27.6590000
   1.3450000  18.3770000  28.3260000   2.7860000  18.1510000  27.9210000
   1.9320000  18.0340000  27.7780000  14.5340000   6.5830000  19.7490000
  15.0120000   6.2300000  19.0000000  15.0360000   7.3550000  20.0120000
  14.6590000   6.6370000  19.6870000   1.9780000  10.6500000  37.6020000
   2.7810000  11.1600000  37.4920000   1.5280000  11.0680000  38.3370000
   2.0230000  10.7690000  37.6820000  17.1620000  18.5700000  28.9300000
  17.0150000  17.6270000  29.0110000  17.8160000  18.7680000  29.6010000
  17.2270000  18.4740000  29.0260000  18.4950000  14.8480000  27.7160000
  17.6510000  15.2610000  27.9000000  18.3630000  13.9260000  27.9340000
  18.3700000  14.7830000  27.7670000  12.7890000   4.1340000  31.0090000
  12.3350000   4.5760000  30.2910000  12.2470000   4.3090000  31.7780000
  12.6620000   4.2130000  31.0150000  17.9540000   9.0620000  29.9530000
  17.5650000   8.5880000  30.6890000  17.4190000   9.8510000  29.8670000
  17.8360000   9.1020000  30.0360000  11.3520000   2.3550000  21.5750000
  10.5930000   2.6030000  21.0470000  11.9070000   3.1350000  21.5760000
  11.3260000   2.4870000  21.5080000  15.0870000   6.7710000  31.4670000
  14.8220000   6.1190000  32.1170000  15.3060000   6.2580000  30.6890000
  15.0810000   6.6220000  31.4510000   7.4890000   3.4240000  34.9320000
   8.4110000   3.5000000  35.1760000   7.0370000   4.0410000  35.5070000
   7.5490000   3.5120000  35.0360000  10.0360000  18.4300000  26.0420000
   9.8510000  17.6030000  25.5960000   9.7240000  19.1030000  25.4370000
   9.9720000  18.4100000  25.9070000  16.1400000   0.3000000  37.6670000
  15.5990000  -0.2150000  38.2660000  15.6760000   1.1330000  37.5800000
  16.0120000   0.3410000  37.7330000  11.6240000  17.6650000  19.1320000
  11.7820000  18.5040000  18.6990000  11.8860000  17.8120000  20.0410000
  11.6780000  17.7910000  19.1930000  13.7340000  16.4420000  29.2420000
  13.1900000  17.0420000  28.7310000  13.3430000  15.5810000  29.0960000
  13.6150000  16.4090000  29.1580000  17.5090000   7.8510000  32.8650000
  16.6130000   7.5260000  32.7780000  17.4090000   8.7460000  33.1900000
  17.3810000   7.9240000  32.8960000   7.8260000  18.8100000  28.2150000
   7.7920000  18.1230000  28.8800000   8.3020000  18.4150000  27.4850000
   7.8820000  18.6720000  28.2070000  10.2280000  18.2660000  29.9800000
  11.0180000  18.8040000  29.9260000   9.6280000  18.6580000  29.3460000
  10.2520000  18.3850000  29.8920000  10.0110000   4.0000000  36.4210000
   9.5450000   4.5980000  37.0050000  10.6060000   4.5640000  35.9260000
  10.0270000   4.1480000  36.4320000   0.4060000   1.8000000  32.4500000
   1.2680000   1.7610000  32.8640000   0.5920000   1.9500000  31.5230000
   0.5400000   1.8140000  32.3840000  -0.1350000   6.9710000  36.4370000
  -0.7350000   7.7040000  36.5780000   0.4120000   6.9540000  37.2230000
  -0.1420000   7.0630000  36.5570000  11.3000000   7.6670000  32.3800000
  11.1370000   7.9760000  31.4880000  10.4390000   7.4030000  32.7020000
  11.1690000   7.6730000  32.3070000  11.2320000  11.3300000  34.9160000
  10.4140000  11.1740000  34.4440000  11.2800000  12.2820000  35.0050000
  11.1340000  11.4320000  34.8670000  15.5820000   6.0260000  36.1460000
  16.2950000   5.3940000  36.2420000  16.0220000   6.8630000  36.0000000
  15.7290000   6.0520000  36.1390000  17.0550000  17.3030000  31.7150000
  17.3370000  17.2070000  32.6250000  16.2740000  17.8540000  31.7640000
  16.9910000  17.3610000  31.8380000   1.0790000  17.1700000  32.3010000
   0.7860000  16.8970000  31.4310000   0.7710000  18.0720000  32.3850000
   1.0020000  17.2500000  32.2000000  14.6070000   2.4860000  36.3410000
  14.6680000   2.1390000  35.4510000  13.6670000   2.5340000  36.5160000
  14.4940000   2.4480000  36.2490000  14.7240000   1.4590000  28.6420000
  15.5950000   1.0660000  28.6990000  14.6250000   1.6900000  27.7190000
  14.8230000   1.4380000  28.5310000  14.7490000   5.3240000  23.8900000
  14.5280000   5.0740000  24.7880000  15.5650000   4.8580000  23.7070000
  14.8250000   5.2320000  23.9820000   7.1830000   0.8950000  36.2080000
   6.6300000   1.2060000  36.9240000   7.2440000   1.6410000  35.6110000
   7.1200000   1.0300000  36.2230000  11.8520000  15.0790000  33.0980000
  11.6490000  14.7690000  33.9800000  12.3660000  14.3710000  32.7080000
  11.8920000  14.9480000  33.1610000  17.4400000   5.3480000  21.7260000
  16.6170000   4.8610000  21.6780000  17.1880000   6.2120000  22.0540000
  17.3030000   5.3960000  21.7620000  14.4970000  12.6810000  35.7450000
  13.8570000  12.1480000  36.2170000  14.4590000  12.3580000  34.8440000
  14.4100000  12.5710000  35.6900000   8.2640000  15.0490000  35.8800000
   7.8770000  14.6840000  35.0840000   7.6160000  15.6780000  36.1950000
   8.1310000  15.0820000  35.8190000   0.6240000  14.4030000  33.2490000
   0.2420000  15.2460000  33.4930000   1.4480000  14.6290000  32.8180000
   0.6800000  14.5400000  33.2250000  17.1640000  10.5180000  33.5620000
  16.2730000  10.7340000  33.8400000  17.4410000  11.2710000  33.0410000
  17.0850000  10.6420000  33.5320000  16.2320000  12.5400000  23.9940000
  16.2540000  12.6560000  24.9440000  16.4050000  13.4130000  23.6430000
  16.2570000  12.6670000  24.0710000  12.7810000  18.4760000  21.8120000
  12.2650000  17.7910000  22.2380000  12.2980000  19.2830000  21.9860000
  12.6530000  18.4910000  21.8890000  12.5180000  20.0190000  30.1130000
  13.2930000  19.8630000  29.5740000  12.4870000  20.9700000  30.2190000
  12.6130000  20.1210000  30.0580000  14.2810000  15.8510000  35.6490000
  14.5510000  14.9470000  35.8090000  13.3290000  15.8380000  35.7500000
  14.1940000  15.7340000  35.6830000  14.5910000  11.5570000  33.3460000
  13.9810000  10.8210000  33.4020000  14.1590000  12.1810000  32.7630000
  14.4580000  11.5420000  33.2790000   6.7250000   5.2450000  36.8990000
   5.9600000   4.8480000  37.3170000   6.4710000   6.1560000  36.7510000
   6.5940000   5.3110000  36.9340000  13.4460000  13.4160000  31.3650000
  13.2730000  13.3390000  30.4270000  14.2290000  13.9630000  31.4200000
  13.5240000  13.4760000  31.2520000  15.2920000  18.3670000  34.9750000
  15.7010000  18.5390000  35.8230000  15.0230000  17.4500000  35.0200000
  15.3100000  18.2720000  35.0890000  14.3060000   3.0290000  33.2430000
  14.0190000   3.8550000  33.6350000  14.0830000   3.1130000  32.3160000
  14.2400000   3.1460000  33.1750000  17.9590000  17.6590000  21.9730000
  18.5460000  17.4820000  21.2380000  17.3680000  18.3390000  21.6490000
  17.9580000  17.7230000  21.8370000  17.7990000  16.0140000  36.9680000
  17.0270000  16.0450000  37.5320000  18.4160000  16.6240000  37.3740000
  17.7790000  16.0960000  37.0930000  18.3210000   4.3650000  25.7290000
  18.9030000   4.8500000  25.1430000  17.7550000   5.0350000  26.1120000
  18.3230000   4.5130000  25.7030000  12.7000000  11.1410000  37.0370000
  11.8890000  11.1790000  36.5300000  13.0640000  10.2780000  36.8420000
  12.6430000  11.0360000  36.9470000   8.9440000   7.7820000  34.8630000
   8.1900000   7.4520000  34.3740000   8.7430000   7.5840000  35.7770000
   8.8220000   7.7140000  34.9170000  12.4940000   7.1050000  36.9320000
  11.7100000   7.0660000  37.4800000  13.1310000   6.5540000  37.3860000
  12.4750000   7.0300000  37.0600000  18.0900000   0.8970000  26.4660000
  17.4940000   0.5470000  27.1280000  18.8080000   0.2650000  26.4310000
  18.1060000   0.7720000  26.5460000  14.1600000  11.5420000  22.1730000
  14.5560000  11.8830000  22.9750000  14.6510000  11.9610000  21.4660000
  14.2730000  11.6390000  22.1850000  13.8890000   5.6280000  34.1350000
  14.5820000   5.8220000  34.7670000  13.2530000   6.3340000  34.2530000
  13.8960000   5.7430000  34.2310000  14.3540000  17.8980000  31.6100000
  13.8810000  18.7310000  31.6030000  13.8230000  17.3170000  31.0660000
  14.2250000  17.9300000  31.5400000   6.4660000   2.5690000  13.5940000
   6.6940000   2.5410000  14.5230000   5.8370000   1.8570000  13.4810000
   6.4150000   2.4740000  13.6990000   3.8650000  16.7550000  13.8540000
   2.9110000  16.6870000  13.8220000   4.0540000  17.0620000  14.7400000
   3.7670000  16.7860000  13.9630000   6.7990000  17.1420000   4.0000000
   6.0000000  16.6150000   4.0100000   7.1430000  17.0390000   3.1130000
   6.7410000  17.0610000   3.8880000  17.5780000   7.0500000   7.5610000
  16.7990000   7.1600000   8.1060000  17.9220000   7.9360000   7.4520000
  17.5220000   7.1770000   7.6170000  17.5210000  10.9550000   3.7420000
  17.1550000  11.5960000   4.3520000  16.7560000  10.5330000   3.3500000
  17.3760000  10.9830000   3.7700000   0.0330000   4.6960000  13.5500000
   0.3100000   5.2650000  14.2680000  -0.5690000   4.0730000  13.9570000
  -0.0080000   4.6890000  13.6940000  15.8460000   2.9850000   2.8470000
  15.9780000   2.8410000   3.7840000  14.9780000   3.3840000   2.7870000
  15.7520000   3.0170000   2.9600000  12.2860000  18.0470000   8.6000000
  12.8720000  18.7840000   8.4250000  11.5040000  18.2330000   8.0810000
  12.2610000  18.1650000   8.5110000   3.5200000   8.3100000   0.3390000
   2.9170000   9.0470000   0.2430000   4.1490000   8.6000000   1.0000000
   3.5230000   8.4410000   0.4110000   7.9470000  16.7720000   1.6320000
   8.4060000  15.9500000   1.8040000   8.6450000  17.4120000   1.4930000
   8.0950000  16.7490000   1.6360000   6.2610000  16.7570000  18.0830000
   6.8350000  16.6700000  18.8440000   6.2190000  17.6990000  17.9210000
   6.3290000  16.8660000  18.1590000  17.3110000  12.8580000  13.1480000
  16.5970000  13.4630000  12.9490000  18.0270000  13.4210000  13.4450000
  17.3120000  13.0070000  13.1610000   0.8440000   1.4970000  10.5530000
   1.6780000   1.9510000  10.4290000   0.2560000   1.8960000   9.9130000
   0.8760000   1.6060000  10.4560000  16.9560000  14.8320000   3.6390000
  17.0770000  15.7070000   3.2710000  17.1650000  14.2380000   2.9180000
  16.9980000  14.8680000   3.4990000   1.3530000  18.3140000   4.8220000
   0.5720000  18.1830000   4.2840000   1.3230000  19.2390000   5.0660000
   1.2490000  18.4160000   4.7840000  18.5490000   1.5690000   0.5180000
  18.3730000   2.4100000   0.0970000  17.7400000   1.0700000   0.4040000
  18.4230000   1.6130000   0.4500000  21.1180000   7.4970000   7.8960000
  21.1320000   7.1840000   8.8010000  21.0690000   8.4500000   7.9730000
  21.1140000   7.5790000   8.0220000   3.0840000  16.8390000   3.3560000
   2.5020000  17.3370000   3.9290000   3.3130000  17.4500000   2.6560000
   3.0390000  16.9810000   3.3400000  16.6830000   8.3980000   1.7800000
  16.2260000   8.1570000   2.5860000  17.6090000   8.2580000   1.9790000
  16.7430000   8.3490000   1.9090000  15.4270000  15.0180000  13.6180000
  15.0760000  14.9150000  14.5030000  15.5750000  15.9600000  13.5280000
  15.4010000  15.1250000  13.7200000  17.5640000  16.7850000  15.4970000
  17.7620000  16.3900000  16.3470000  16.8930000  17.4400000  15.6880000
  17.5030000  16.8180000  15.6300000  11.3680000  17.7410000  13.7810000
  10.8190000  17.6720000  13.0010000  11.7320000  16.8640000  13.8970000
  11.3450000  17.6200000  13.6960000   1.8180000   2.6460000   7.3960000
   1.5800000   1.8270000   6.9620000   1.0570000   3.2140000   7.2690000
   1.6900000   2.6140000   7.3240000  10.0750000  14.8660000  11.0200000
  10.0110000  14.3460000  11.8220000  10.6200000  15.6150000  11.2630000
  10.1360000  14.8950000  11.1540000   1.8870000  17.9540000   8.7990000
   1.3450000  18.3770000   9.4660000   2.7860000  18.1510000   9.0610000
   1.9320000  18.0340000   8.9180000   7.3360000  13.7590000  14.2940000
   6.5530000  14.1650000  13.9250000   7.0480000  12.8880000  14.5670000
   7.1990000  13.6990000  14.2820000   1.0740000  15.7710000  11.0370000
   1.7290000  16.1320000  10.4400000   0.3960000  15.4160000  10.4620000
   1.0710000  15.7720000  10.8870000   1.0630000  11.5810000   2.2010000
   1.8300000  11.2580000   2.6760000   0.3210000  11.3420000   2.7560000
   1.0660000  11.5090000   2.3330000  17.1620000  18.5700000  10.0700000
  17.0150000  17.6270000  10.1510000  17.8160000  18.7680000  10.7410000
  17.2270000  18.4740000  10.1660000  18.4950000  14.8480000   8.8560000
  17.6510000  15.2610000   9.0400000  18.3630000  13.9260000   9.0740000
  18.3700000  14.7830000   8.9070000  14.3320000   9.6330000   6.1070000
  15.0060000  10.0450000   6.6470000  13.5220000  10.0790000   6.3530000
  14.3150000   9.7430000   6.2070000   4.4800000   0.4340000   8.9910000
   4.6510000   1.3550000   9.1900000   5.0460000  -0.0500000   9.5920000
   4.5740000   0.4900000   9.0930000  10.0360000  18.4300000   7.1820000
   9.8510000  17.6030000   6.7360000   9.7240000  19.1030000   6.5770000
   9.9720000  18.4100000   7.0470000  16.1400000   0.3000000  18.8070000
  15.5990000  -0.2150000  19.4050000  15.6760000   1.1330000  18.7200000
  16.0120000   0.3410000  18.8730000  11.6240000  17.6650000   0.2720000
  11.7820000  18.5040000  -0.1610000  11.8860000  17.8120000   1.1810000
  11.6780000  17.7910000   0.3330000   7.8260000  18.8100000   9.3550000
   7.7920000  18.1230000  10.0200000   8.3020000  18.4150000   8.6250000
   7.8820000  18.6720000   9.3470000  10.2280000  18.2660000  11.1200000
  11.0180000  18.8040000  11.0660000   9.6280000  18.6580000  10.4860000
  10.2520000  18.3850000  11.0320000  13.2180000  16.8960000   5.9720000
  12.8500000  17.4770000   6.6370000  14.1090000  17.2190000   5.8380000
  13.2850000  17.0120000   6.0400000   1.2210000   5.8720000   5.6200000
   1.6210000   6.4570000   6.2640000   0.7570000   6.4570000   5.0210000
   1.2130000   6.0220000   5.6260000  11.5220000   1.8880000  17.6570000
  11.5190000   1.5980000  16.7450000  10.8500000   2.5690000  17.6940000
  11.4350000   1.9380000  17.5450000   4.0970000  12.5870000   1.9490000
   4.1830000  12.5360000   0.9970000   3.5440000  13.3550000   2.0980000
   4.0370000  12.6790000   1.8460000  17.0550000  17.3030000  12.8550000
  17.3370000  17.2070000  13.7650000  16.2740000  17.8540000  12.9040000
  16.9910000  17.3610000  12.9780000  16.9760000  16.0810000   6.2900000
  17.0460000  15.4520000   7.0070000  17.0420000  15.5490000   5.4970000
  16.9930000  15.9330000   6.2800000   1.0790000  17.1700000  13.4410000
   0.7860000  16.8970000  12.5710000   0.7710000  18.0720000  13.5250000
   1.0020000  17.2500000  13.3400000  14.6070000   2.4860000  17.4810000
  14.6680000   2.1390000  16.5910000  13.6670000   2.5340000  17.6550000
  14.4940000   2.4480000  17.3890000  11.5860000  16.1150000   3.9300000
  10.9010000  16.0430000   4.5950000  12.3840000  16.2930000   4.4270000
  11.6000000  16.1280000   4.0790000  12.5950000  15.0870000   0.1770000
  12.1950000  15.9550000   0.2270000  12.1190000  14.5660000   0.8240000
  12.4830000  15.1320000   0.2660000  17.4400000   5.3480000   2.8660000
  16.6170000   4.8610000   2.8180000  17.1880000   6.2120000   3.1940000
  17.3030000   5.3960000   2.9020000   2.5270000   4.0290000   9.8110000
   2.4330000   3.5620000   8.9810000   3.3500000   3.7060000  10.1760000
   2.6200000   3.9280000   9.7520000  16.2320000  12.5400000   5.1340000
  16.2540000  12.6560000   6.0840000  16.4050000  13.4130000   4.7830000
  16.2570000  12.6670000   5.2110000  15.6070000  18.4800000   5.4410000
  15.3430000  18.4450000   4.5220000  16.2290000  17.7590000   5.5400000
  15.6530000  18.3830000   5.3360000  12.7810000  18.4760000   2.9520000
  12.2650000  17.7910000   3.3780000  12.2980000  19.2830000   3.1260000
  12.6530000  18.4910000   3.0290000   4.6900000   3.2870000  11.0670000
   5.1420000   2.7080000  11.6810000   5.2530000   3.3020000  10.2940000
   4.8200000   3.2150000  11.0470000  12.5180000  20.0190000  11.2530000
  13.2930000  19.8630000  10.7140000  12.4870000  20.9700000  11.3590000
  12.6130000  20.1210000  11.1980000   9.0880000  16.4310000   5.4820000
   8.8500000  15.6180000   5.9260000   8.2830000  16.7090000   5.0450000
   8.9550000  16.3630000   5.4830000  14.2810000  15.8510000  16.7890000
  14.5510000  14.9470000  16.9490000  13.3290000  15.8380000  16.8900000
  14.1940000  15.7340000  16.8230000  -0.8270000  13.3890000   1.4120000
  -0.1990000  12.8660000   1.9110000  -0.3330000  13.6950000   0.6510000
  -0.6830000  13.3610000   1.3790000  15.2920000  18.3670000  16.1150000
  15.7010000  18.5390000  16.9630000  15.0230000  17.4500000  16.1600000
  15.3100000  18.2720000  16.2290000  17.9590000  17.6590000   3.1130000
  18.5460000  17.4820000   2.3780000  17.3680000  18.3390000   2.7890000
  17.9580000  17.7230000   2.9770000  17.7990000  16.0140000  18.1080000
  17.0270000  16.0450000  18.6720000  18.4160000  16.6240000  18.5140000
  17.7790000  16.0960000  18.2330000  16.0140000  10.8710000   8.0980000
  16.8670000  10.5300000   7.8280000  16.0360000  10.8420000   9.0540000
  16.1260000  10.8230000   8.1850000  14.3540000  17.8980000  12.7500000
  13.8810000  18.7310000  12.7430000  13.8230000  17.3170000  12.2060000
  14.2250000  17.9300000  12.6800000   6.4660000   2.5690000  -5.2660000
   6.6940000   2.5410000  -4.3370000   5.8370000   1.8570000  -5.3790000
   6.4150000   2.4740000  -5.1610000   3.8650000  16.7550000  -5.0060000
   2.9110000  16.6870000  -5.0380000   4.0540000  17.0620000  -4.1200000
   3.7670000  16.7860000  -4.8970000   8.6300000  14.1990000 -11.8430000
   8.4560000  14.3600000 -10.9150000   7.8650000  13.7130000 -12.1490000
   8.5100000  14.1570000 -11.7630000   8.5960000   4.3050000  -5.9070000
   7.9930000   3.6640000  -5.5320000   9.3850000   4.2360000  -5.3690000
   8.6200000   4.2150000  -5.7900000  15.3620000  15.2550000 -18.3260000
  14.5000000  15.5830000 -18.5820000  15.2660000  14.3030000 -18.3270000
  15.2390000  15.1750000 -18.3590000   6.7990000  17.1420000 -14.8600000
   6.0000000  16.6150000 -14.8500000   7.1430000  17.0390000 -15.7470000
   6.7410000  17.0610000 -14.9720000  10.7070000  12.1270000 -12.3930000
  10.2810000  11.5200000 -12.9970000  10.0440000  12.7940000 -12.2150000
  10.5680000  12.1350000 -12.4470000  16.4590000   2.7590000 -13.1400000
  16.5270000   1.8120000 -13.2640000  17.3280000   3.0240000 -12.8390000
  16.5790000   2.6720000 -13.1170000  17.5780000   7.0500000 -11.2990000
  16.7990000   7.1600000 -10.7540000  17.9220000   7.9360000 -11.4080000
  17.5220000   7.1770000 -11.2430000  11.7850000  11.3180000 -16.8480000
  12.5550000  11.3390000 -16.2810000  12.1040000  10.9510000 -17.6720000
  11.9240000  11.2740000 -16.8810000  17.5210000  10.9550000 -15.1180000
  17.1550000  11.5960000 -14.5080000  16.7560000  10.5330000 -15.5100000
  17.3760000  10.9830000 -15.0900000  15.5030000  12.5550000 -18.1010000
  15.5450000  12.4210000 -19.0480000  16.3890000  12.8220000 -17.8580000
  15.6220000  12.5720000 -18.1910000  15.8460000   2.9850000 -16.0130000
  15.9780000   2.8410000 -15.0760000  14.9780000   3.3840000 -16.0730000
  15.7520000   3.0170000 -15.9000000  12.4960000  14.7220000 -11.5120000
  12.6720000  15.5720000 -11.9150000  11.7370000  14.3850000 -11.9860000
  12.4220000  14.7880000 -11.6240000  12.2860000  18.0470000 -10.2600000
  12.8720000  18.7840000 -10.4350000  11.5040000  18.2330000 -10.7790000
  12.2610000  18.1650000 -10.3490000   4.6080000   5.3020000 -11.7400000
   4.2010000   5.3010000 -12.6070000   4.1220000   5.9650000 -11.2490000
   4.4940000   5.3870000 -11.7880000   8.6950000   6.6880000 -13.1910000
   7.8700000   6.6700000 -13.6760000   8.4440000   6.5020000 -12.2860000
   8.5570000   6.6620000 -13.1370000   5.8090000  16.3530000  -8.5740000
   5.5480000  15.9780000  -7.7330000   6.5400000  15.8080000  -8.8630000
   5.8690000  16.2350000  -8.5040000   7.9470000  16.7720000 -17.2280000
   8.4060000  15.9500000 -17.0560000   8.6450000  17.4120000 -17.3670000
   8.0950000  16.7490000 -17.2240000   0.5640000  13.7260000  -0.9120000
  -0.1980000  14.2940000  -1.0290000   0.7690000  13.4160000  -1.7940000
   0.4920000  13.7590000  -1.0400000   6.2610000  16.7570000  -0.7770000
   6.8350000  16.6700000  -0.0160000   6.2190000  17.6990000  -0.9390000
   6.3290000  16.8660000  -0.7010000  10.9670000   3.0820000 -10.0620000
  10.0150000   3.0190000  -9.9910000  11.2950000   2.3540000  -9.5340000
  10.8870000   2.9810000  -9.9850000  16.0960000  11.0900000  -7.9400000
  16.5360000  11.5970000  -7.2570000  15.4240000  10.5930000  -7.4740000
  16.0670000  11.0910000  -7.7930000  17.3110000  12.8580000  -5.7120000
  16.5970000  13.4630000  -5.9110000  18.0270000  13.4210000  -5.4150000
  17.3120000  13.0070000  -5.6990000   6.6160000  10.6110000  -0.8760000
   6.4590000   9.6670000  -0.9120000   6.5270000  10.9030000  -1.7830000
   6.5840000  10.5270000  -0.9970000  10.8230000  13.9190000 -16.7740000
  11.1270000  13.0260000 -16.6180000  11.3500000  14.4590000 -16.1850000
  10.9290000  13.8740000 -16.6790000  13.4460000   4.4070000 -16.1980000
  13.5500000   4.7510000 -15.3110000  13.3160000   5.1830000 -16.7430000
  13.4430000   4.5500000 -16.1540000  16.0880000   5.2550000  -8.8710000
  17.0000000   5.2660000  -8.5780000  16.0880000   4.6700000  -9.6290000
  16.2050000   5.1810000  -8.9300000  16.9400000   3.7100000  -1.2170000
  16.0410000   3.3820000  -1.2220000  17.2650000   3.5330000  -2.0990000
  16.8660000   3.6450000  -1.3300000  16.9560000  14.8320000 -15.2210000
  17.0770000  15.7070000 -15.5890000  17.1650000  14.2380000 -15.9420000
  16.9980000  14.8680000 -15.3610000  15.3740000   0.2310000 -16.3430000
  15.5020000   1.1460000 -16.5950000  14.4250000   0.1360000 -16.2580000
  15.2690000   0.3360000 -16.3640000   1.3530000  18.3140000 -14.0380000
   0.5720000  18.1830000 -14.5760000   1.3230000  19.2390000 -13.7940000
   1.2490000  18.4160000 -14.0760000  11.4040000  14.1160000  -2.0870000
  11.9860000  13.9520000  -1.3460000  10.8110000  14.8020000  -1.7790000
  11.4020000  14.1830000  -1.9530000   7.7060000  14.5800000  -9.3480000
   7.2260000  13.7720000  -9.1710000   8.4360000  14.5660000  -8.7290000
   7.7380000  14.4750000  -9.2460000  18.5490000   1.5690000 -18.3420000
  18.3730000   2.4100000 -18.7630000  17.7400000   1.0700000 -18.4560000
  18.4230000   1.6130000 -18.4100000  21.1180000   7.4970000 -10.9640000
  21.1320000   7.1840000 -10.0590000  21.0690000   8.4500000 -10.8870000
  21.1140000   7.5790000 -10.8380000   7.2490000   7.0810000  -4.9610000
   6.4040000   6.7610000  -4.6440000   7.7220000   6.2900000  -5.2200000
   7.2010000   6.9390000  -4.9530000   4.1760000  12.2670000  -0.6270000
   4.9870000  11.7790000  -0.7690000   3.9070000  12.5440000  -1.5030000
   4.2450000  12.2400000  -0.7580000   3.0840000  16.8390000 -15.5040000
   2.5020000  17.3370000 -14.9310000   3.3130000  17.4500000 -16.2040000
   3.0390000  16.9810000 -15.5200000  16.9770000   2.9480000  -3.7860000
  16.1110000   2.7840000  -4.1570000  17.5590000   2.3560000  -4.2640000
  16.9410000   2.8510000  -3.8950000  16.6830000   8.3980000 -17.0800000
  16.2260000   8.1570000 -16.2740000  17.6090000   8.2580000 -16.8810000
  16.7430000   8.3490000 -16.9510000  15.4270000  15.0180000  -5.2420000
  15.0760000  14.9150000  -4.3570000  15.5750000  15.9600000  -5.3320000
  15.4010000  15.1250000  -5.1400000  17.5640000  16.7850000  -3.3630000
  17.7620000  16.3900000  -2.5130000  16.8930000  17.4400000  -3.1720000
  17.5030000  16.8180000  -3.2300000  16.7960000   8.8250000  -0.7560000
  15.9730000   9.1650000  -1.1050000  16.6520000   8.7690000   0.1890000
  16.6730000   8.8610000  -0.6800000  10.7090000   5.5510000 -14.4170000
   9.8860000   5.8340000 -14.0210000  11.3870000   5.9370000 -13.8620000
  10.6910000   5.6360000 -14.2950000  12.7280000  10.6520000 -10.8690000
  13.2730000  11.1530000 -10.2620000  12.0340000  11.2590000 -11.1260000
  12.7090000  10.7930000 -10.8240000   0.7110000  12.2180000 -10.0480000
   1.1050000  12.1480000 -10.9180000   1.3230000  11.7630000  -9.4710000
   0.8400000  12.1510000 -10.0860000  15.4320000   7.8980000 -14.6760000
  15.3890000   8.5170000 -13.9460000  15.0660000   7.0870000 -14.3240000
  15.3800000   7.8740000 -14.5370000  10.1820000   8.7620000 -14.1970000
   9.5100000   8.0810000 -14.1670000  10.2610000   8.9790000 -15.1260000
  10.1060000   8.7030000 -14.3120000  11.3680000  17.7410000  -5.0790000
  10.8190000  17.6720000  -5.8590000  11.7320000  16.8640000  -4.9630000
  11.3450000  17.6200000  -5.1640000   5.8020000   7.7360000  -1.1280000
   5.6870000   7.4520000  -2.0350000   4.9110000   7.8390000  -0.7950000
   5.6730000   7.7130000  -1.2020000   6.2320000  12.2550000  -8.2500000
   6.1920000  11.3000000  -8.2870000   5.7770000  12.4830000  -7.4400000
   6.1690000  12.1620000  -8.1510000   7.5620000  11.1910000 -17.1420000
   7.1790000  10.8820000 -17.9630000   7.8010000  12.1020000 -17.3170000
   7.5440000  11.2680000 -17.2690000  11.6210000   3.2100000 -12.9220000
  11.3270000   3.9250000 -13.4860000  11.3500000   3.4710000 -12.0420000
  11.5490000   3.3350000 -12.8820000  10.0750000  14.8660000  -7.8400000
  10.0110000  14.3460000  -7.0380000  10.6200000  15.6150000  -7.5970000
  10.1360000  14.8950000  -7.7060000  15.5740000  13.7620000 -11.2210000
  14.6590000  13.7720000 -11.5040000  15.6960000  12.8940000 -10.8360000
  15.4720000  13.6520000 -11.2080000   1.8870000  17.9540000 -10.0610000
   1.3450000  18.3770000  -9.3940000   2.7860000  18.1510000  -9.7990000
   1.9320000  18.0340000  -9.9420000   7.4910000  11.7160000 -14.1350000
   6.9680000  12.4190000 -13.7490000   7.5030000  11.9120000 -15.0710000
   7.4260000  11.8310000 -14.2050000  14.5340000   6.5830000 -17.9710000
  15.0120000   6.2300000 -18.7200000  15.0360000   7.3550000 -17.7080000
  14.6590000   6.6370000 -18.0330000   3.4280000  12.0190000  -3.1410000
   3.3900000  12.3360000  -4.0430000   2.5560000  11.6600000  -2.9760000
   3.3110000  12.0130000  -3.2350000   1.0740000  15.7710000  -7.8230000
   1.7290000  16.1320000  -8.4200000   0.3960000  15.4160000  -8.3980000
   1.0710000  15.7720000  -7.9730000  16.3860000  -2.3370000  -8.5720000
  16.5320000  -1.9320000  -7.7170000  15.4410000  -2.2690000  -8.7110000
  16.2840000  -2.2770000  -8.4800000   6.3620000   9.7160000  -6.0870000
   6.6870000   8.9130000  -5.6800000   5.4930000   9.4840000  -6.4130000
   6.2920000   9.5840000  -6.0770000  17.1620000  18.5700000  -8.7900000
  17.0150000  17.6270000  -8.7090000  17.8160000  18.7680000  -8.1190000
  17.2270000  18.4740000  -8.6940000  18.4950000  14.8480000 -10.0040000
  17.6510000  15.2610000  -9.8200000  18.3630000  13.9260000  -9.7860000
  18.3700000  14.7830000  -9.9530000  14.3320000   9.6330000 -12.7530000
  15.0060000  10.0450000 -12.2130000  13.5220000  10.0790000 -12.5070000
  14.3150000   9.7430000 -12.6530000  17.9540000   9.0620000  -7.7670000
  17.5650000   8.5880000  -7.0310000  17.4190000   9.8510000  -7.8530000
  17.8360000   9.1020000  -7.6840000  11.3280000   5.6100000  -8.9010000
  11.9540000   6.0600000  -9.4680000  11.1860000   4.7630000  -9.3250000
  11.3900000   5.5590000  -9.0280000  13.4740000   1.5390000 -11.6320000
  12.8120000   1.9450000 -12.1920000  14.1690000   1.2760000 -12.2350000
  13.4780000   1.5580000 -11.7810000  15.0870000   6.7710000  -6.2530000
  14.8220000   6.1190000  -5.6030000  15.3060000   6.2580000  -7.0310000
  15.0810000   6.6220000  -6.2690000   5.8330000   8.5640000 -12.0280000
   6.0210000   7.8120000 -12.5900000   6.6890000   8.9550000 -11.8580000
   5.9660000   8.5180000 -12.0780000   8.2830000  13.7710000 -17.7450000
   9.1270000  13.7330000 -17.2940000   8.5060000  13.9760000 -18.6530000
   8.4200000  13.7920000 -17.8030000   5.3340000   9.5610000  -9.4760000
   5.5910000   9.1430000 -10.2980000   5.4180000   8.8690000  -8.8200000
   5.3780000   9.4190000  -9.4970000  12.6460000  14.0160000  -9.0170000
  12.7440000  14.2630000  -9.9370000  11.7920000  14.3660000  -8.7650000
  12.5490000  14.0920000  -9.1020000  10.0360000  18.4300000 -11.6780000
   9.8510000  17.6030000 -12.1240000   9.7240000  19.1030000 -12.2830000
   9.9720000  18.4100000 -11.8130000  11.6240000  17.6650000 -18.5880000
  11.7820000  18.5040000 -19.0210000  11.8860000  17.8120000 -17.6790000
  11.6780000  17.7910000 -18.5270000  13.7340000  16.4420000  -8.4780000
  13.1900000  17.0420000  -8.9890000  13.3430000  15.5810000  -8.6240000
  13.6150000  16.4090000  -8.5620000  17.5090000   7.8510000  -4.8550000
  16.6130000   7.5260000  -4.9420000  17.4090000   8.7460000  -4.5300000
  17.3810000   7.9240000  -4.8240000   7.8260000  18.8100000  -9.5050000
   7.7920000  18.1230000  -8.8400000   8.3020000  18.4150000 -10.2350000
   7.8820000  18.6720000  -9.5130000  10.8720000  11.0430000  -5.9890000
  10.5960000  11.8670000  -5.5870000  11.8230000  11.0300000  -5.8800000
  10.9590000  11.1470000  -5.9240000  10.2280000  18.2660000  -7.7400000
  11.0180000  18.8040000  -7.7940000   9.6280000  18.6580000  -8.3740000
  10.2520000  18.3850000  -7.8280000  13.2180000  16.8960000 -12.8880000
  12.8500000  17.4770000 -12.2230000  14.1090000  17.2190000 -13.0220000
  13.2850000  17.0120000 -12.8200000  11.3230000   9.3330000  -7.9030000
  11.0550000   9.9760000  -7.2460000  10.5240000   9.1510000  -8.3990000
  11.1860000   9.3920000  -7.8830000  11.3000000   7.6670000  -5.3410000
  11.1370000   7.9760000  -6.2320000  10.4390000   7.4030000  -5.0180000
  11.1690000   7.6730000  -5.4130000  17.0550000  17.3030000  -6.0050000
  17.3370000  17.2070000  -5.0950000  16.2740000  17.8540000  -5.9560000
  16.9910000  17.3610000  -5.8820000   4.7070000  11.9650000 -10.9460000
   4.6200000  12.7450000 -10.3970000   4.7790000  11.2410000 -10.3230000
   4.7050000  11.9720000 -10.7960000   5.8910000   0.6220000 -12.3100000
   5.4860000   0.2910000 -11.5080000   5.9980000  -0.1520000 -12.8620000
   5.8530000   0.4810000 -12.2780000  16.9760000  16.0810000 -12.5700000
  17.0460000  15.4520000 -11.8530000  17.0420000  15.5490000 -13.3630000
  16.9930000  15.9330000 -12.5800000   6.1330000  13.8250000 -15.9900000
   5.4010000  13.3360000 -16.3660000   6.7930000  13.8380000 -16.6820000
   6.1230000  13.7640000 -16.1260000   8.5790000   3.5650000 -12.0390000
   7.7270000   3.4270000 -12.4510000   8.6290000   4.5120000 -11.9030000
   8.4770000   3.6690000 -12.0740000   1.0790000  17.1700000  -5.4190000
   0.7860000  16.8970000  -6.2890000   0.7710000  18.0720000  -5.3350000
   1.0020000  17.2500000  -5.5200000   4.9940000  14.5340000  -6.0210000
   4.4240000  15.2210000  -5.6740000   4.5420000  13.7180000  -5.8070000
   4.8630000  14.5180000  -5.9490000  11.5860000  16.1150000 -14.9300000
  10.9010000  16.0430000 -14.2650000  12.3840000  16.2930000 -14.4330000
  11.6000000  16.1280000 -14.7810000  14.7490000   5.3240000 -13.8300000
  14.5280000   5.0740000 -12.9320000  15.5650000   4.8580000 -14.0130000
  14.8250000   5.2320000 -13.7380000  12.5950000  15.0870000 -18.6830000
  12.1950000  15.9550000 -18.6330000  12.1190000  14.5660000 -18.0360000
  12.4830000  15.1320000 -18.5940000   8.5520000   3.8740000  -8.6630000
   7.7010000   3.4430000  -8.7500000   8.6510000   4.0210000  -7.7220000
   8.4550000   3.8380000  -8.5540000   5.9740000  13.4080000 -12.8270000
   5.3380000  12.9530000 -12.2760000   5.4860000  14.1420000 -13.2000000
   5.8310000  13.4440000 -12.8040000  11.8520000  15.0790000  -4.6220000
  11.6490000  14.7690000  -3.7400000  12.3660000  14.3710000  -5.0120000
  11.8920000  14.9480000  -4.5590000  17.4400000   5.3480000 -15.9940000
  16.6170000   4.8610000 -16.0420000  17.1880000   6.2120000 -15.6660000
  17.3030000   5.3960000 -15.9580000   8.2640000  15.0490000  -1.8400000
   7.8770000  14.6840000  -2.6360000   7.6160000  15.6780000  -1.5250000
   8.1310000  15.0820000  -1.9010000   0.6240000  14.4030000  -4.4710000
   0.2420000  15.2460000  -4.2270000   1.4480000  14.6290000  -4.9020000
   0.6800000  14.5400000  -4.4950000  17.1640000  10.5180000  -4.1580000
  16.2730000  10.7340000  -3.8800000  17.4410000  11.2710000  -4.6800000
  17.0850000  10.6420000  -4.1890000  16.2320000  12.5400000 -13.7260000
  16.2540000  12.6560000 -12.7760000  16.4050000  13.4130000 -14.0770000
  16.2570000  12.6670000 -13.6490000  15.6070000  18.4800000 -13.4190000
  15.3430000  18.4450000 -14.3380000  16.2290000  17.7590000 -13.3200000
  15.6530000  18.3830000 -13.5240000  12.7810000  18.4760000 -15.9080000
  12.2650000  17.7910000 -15.4820000  12.2980000  19.2830000 -15.7340000
  12.6530000  18.4910000 -15.8310000   4.6900000   3.2870000  -7.7930000
   5.1420000   2.7080000  -7.1790000   5.2530000   3.3020000  -8.5660000
   4.8200000   3.2150000  -7.8130000  12.5180000  20.0190000  -7.6070000
  13.2930000  19.8630000  -8.1460000  12.4870000  20.9700000  -7.5010000
  12.6130000  20.1210000  -7.6620000   9.0880000  16.4310000 -13.3780000
   8.8500000  15.6180000 -12.9340000   8.2830000  16.7090000 -13.8150000
   8.9550000  16.3630000 -13.3770000  14.5910000  11.5570000  -4.3740000
  13.9810000  10.8210000  -4.3180000  14.1590000  12.1810000  -4.9570000
  14.4580000  11.5420000  -4.4410000   3.6890000  12.1450000  -5.9490000
   3.2280000  12.4890000  -6.7140000   3.7700000  11.2070000  -6.1210000
   3.6400000  12.0690000  -6.0690000   6.7250000   5.2450000  -0.8210000
   5.9600000   4.8480000  -0.4030000   6.4710000   6.1560000  -0.9690000
   6.5940000   5.3110000  -0.7860000  12.5530000   7.3370000 -13.4090000
  13.1730000   7.7810000 -13.9880000  11.7430000   7.8410000 -13.4940000
  12.5290000   7.4590000 -13.4940000  -0.8270000  13.3890000 -17.4480000
  -0.1990000  12.8660000 -16.9490000  -0.3330000  13.6950000 -18.2090000
  -0.6830000  13.3610000 -17.4810000   4.8450000  15.4730000 -14.1770000
   4.1450000  15.8710000 -14.6940000   5.2770000  14.8700000 -14.7830000
   4.8110000  15.4470000 -14.3210000  13.4460000  13.4160000  -6.3550000
  13.2730000  13.3390000  -7.2930000  14.2290000  13.9630000  -6.3000000
  13.5240000  13.4760000  -6.4680000   8.2640000   9.8000000 -12.0360000
   8.7780000   9.2000000 -12.5760000   7.9900000  10.4900000 -12.6400000
   8.2940000   9.8110000 -12.1820000  15.2920000  18.3670000  -2.7450000
  15.7010000  18.5390000  -1.8970000  15.0230000  17.4500000  -2.7000000
  15.3100000  18.2720000  -2.6310000  17.9590000  17.6590000 -15.7470000
  18.5460000  17.4820000 -16.4820000  17.3680000  18.3390000 -16.0710000
  17.9580000  17.7230000 -15.8830000   0.7510000  17.1550000 -17.9900000
   1.3080000  16.3960000 -17.8180000   1.3190000  17.9090000 -17.8340000
   0.8950000  17.1540000 -17.9480000  18.3210000   4.3650000 -11.9910000
  18.9030000   4.8500000 -12.5770000  17.7550000   5.0350000 -11.6080000
  18.3230000   4.5130000 -12.0170000   6.0400000   3.1840000 -10.1250000
   5.8620000   3.7740000 -10.8570000   6.5250000   2.4570000 -10.5150000
   6.0790000   3.1670000 -10.2680000   2.3260000  13.2810000  -7.7430000
   2.5850000  13.9740000  -8.3510000   1.4540000  13.5400000  -7.4440000
   2.2480000  13.4030000  -7.7830000  16.0140000  10.8710000 -10.7620000
  16.8670000  10.5300000 -11.0320000  16.0360000  10.8420000  -9.8060000
  16.1260000  10.8230000 -10.6750000  14.1600000  11.5420000 -15.5470000
  14.5560000  11.8830000 -14.7450000  14.6510000  11.9610000 -16.2540000
  14.2730000  11.6390000 -15.5350000  14.3540000  17.8980000  -6.1100000
  13.8810000  18.7310000  -6.1170000  13.8230000  17.3170000  -6.6540000
  14.2250000  17.9300000  -6.1800000   3.8650000  16.7550000 -23.8660000
   2.9110000  16.6870000 -23.8980000   4.0540000  17.0620000 -22.9800000
   3.7670000  16.7860000 -23.7570000   8.6300000  14.1990000 -30.7030000
   8.4560000  14.3600000 -29.7750000   7.8650000  13.7130000 -31.0090000
   8.5100000  14.1570000 -30.6230000   5.2010000   9.0960000 -35.3720000
   5.0470000   9.5530000 -34.5450000   5.9130000   8.4860000 -35.1800000
   5.2720000   9.0760000 -35.2420000   8.5960000   4.3050000 -24.7670000
   7.9930000   3.6640000 -24.3920000   9.3850000   4.2360000 -24.2290000
   8.6200000   4.2150000 -24.6500000  15.3620000  15.2550000 -37.1860000
  14.5000000  15.5830000 -37.4420000  15.2660000  14.3030000 -37.1870000
  15.2390000  15.1750000 -37.2190000   2.0880000  15.3520000 -30.4090000
   2.1260000  16.2450000 -30.7530000   1.2890000  15.3310000 -29.8830000
   1.9910000  15.4640000 -30.3860000   6.7990000  17.1420000 -33.7200000
   6.0000000  16.6150000 -33.7100000   7.1430000  17.0390000 -34.6070000
   6.7410000  17.0610000 -33.8320000  11.0190000   4.1310000 -23.4990000
  11.1970000   3.2490000 -23.1730000  11.3380000   4.7110000 -22.8070000
  11.0830000   4.0920000 -23.3680000  10.7070000  12.1270000 -31.2530000
  10.2810000  11.5200000 -31.8570000  10.0440000  12.7940000 -31.0750000
  10.5680000  12.1350000 -31.3070000  16.4590000   2.7590000 -32.0000000
  16.5270000   1.8120000 -32.1240000  17.3280000   3.0240000 -31.6990000
  16.5790000   2.6720000 -31.9770000  17.5780000   7.0500000 -30.1590000
  16.7990000   7.1600000 -29.6140000  17.9220000   7.9360000 -30.2680000
  17.5220000   7.1770000 -30.1030000   8.6740000   3.1780000 -36.0110000
   8.4080000   2.7150000 -35.2160000   8.6900000   2.5010000 -36.6870000
   8.6420000   3.0320000 -35.9950000   8.9090000  10.3660000 -22.7270000
   8.7810000   9.5010000 -22.3380000   9.3520000  10.1910000 -23.5580000
   8.9490000  10.2330000 -22.7840000  11.7850000  11.3180000 -35.7080000
  12.5550000  11.3390000 -35.1410000  12.1040000  10.9510000 -36.5320000
  11.9240000  11.2740000 -35.7410000  17.5210000  10.9550000 -33.9780000
  17.1550000  11.5960000 -33.3680000  16.7560000  10.5330000 -34.3700000
  17.3760000  10.9830000 -33.9500000  15.5030000  12.5550000 -36.9610000
  15.5450000  12.4210000 -37.9080000  16.3890000  12.8220000 -36.7180000
  15.6220000  12.5720000 -37.0510000   0.9060000  11.0330000 -21.5770000
  -0.0150000  10.8130000 -21.7170000   0.9860000  11.1400000 -20.6300000
   0.7980000  11.0180000 -21.4740000  15.8460000   2.9850000 -34.8730000
  15.9780000   2.8410000 -33.9360000  14.9780000   3.3840000 -34.9330000
  15.7520000   3.0170000 -34.7600000  12.4960000  14.7220000 -30.3720000
  12.6720000  15.5720000 -30.7750000  11.7370000  14.3850000 -30.8460000
  12.4220000  14.7880000 -30.4840000  12.2860000  18.0470000 -29.1200000
  12.8720000  18.7840000 -29.2950000  11.5040000  18.2330000 -29.6390000
  12.2610000  18.1650000 -29.2090000   4.6080000   5.3020000 -30.6000000
   4.2010000   5.3010000 -31.4670000   4.1220000   5.9650000 -30.1090000
   4.4940000   5.3870000 -30.6480000   4.0350000   2.4890000 -31.8820000
   3.2770000   2.4760000 -31.2970000   4.5670000   1.7450000 -31.6010000
   4.0060000   2.3920000 -31.7710000  11.0750000   6.1870000 -21.5830000
  11.6610000   6.5000000 -20.8940000  10.3490000   6.8120000 -21.5830000
  11.0570000   6.3070000 -21.4950000   8.6950000   6.6880000 -32.0510000
   7.8700000   6.6700000 -32.5360000   8.4440000   6.5020000 -31.1460000
   8.5570000   6.6620000 -31.9970000   5.8090000  16.3530000 -27.4340000
   5.5480000  15.9780000 -26.5930000   6.5400000  15.8080000 -27.7230000
   5.8690000  16.2350000 -27.3640000   4.0470000  14.5460000 -28.7190000
   3.3230000  14.8490000 -29.2670000   4.6410000  15.2960000 -28.6710000
   4.0310000  14.6810000 -28.7830000   3.5200000   8.3100000 -37.3810000
   2.9170000   9.0470000 -37.4770000   4.1490000   8.6000000 -36.7200000
   3.5230000   8.4410000 -37.3090000   7.9470000  16.7720000 -36.0880000
   8.4060000  15.9500000 -35.9160000   8.6450000  17.4120000 -36.2270000
   8.0950000  16.7490000 -36.0840000   6.6700000   7.2630000 -27.1060000
   7.5510000   7.5550000 -26.8740000   6.7560000   6.9290000 -27.9990000
   6.7940000   7.2580000 -27.1910000   0.5640000  13.7260000 -19.7720000
  -0.1980000  14.2940000 -19.8890000   0.7690000  13.4160000 -20.6540000
   0.4920000  13.7590000 -19.9000000   2.6350000  15.0210000 -18.4350000
   3.1180000  15.5820000 -19.0420000   2.1920000  14.3850000 -18.9960000
   2.6400000  15.0120000 -18.5840000   6.2610000  16.7570000 -19.6370000
   6.8350000  16.6700000 -18.8760000   6.2190000  17.6990000 -19.7990000
   6.3290000  16.8660000 -19.5610000  10.9670000   3.0820000 -28.9220000
  10.0150000   3.0190000 -28.8510000  11.2950000   2.3540000 -28.3940000
  10.8870000   2.9810000 -28.8450000  16.0960000  11.0900000 -26.8000000
  16.5360000  11.5970000 -26.1170000  15.4240000  10.5930000 -26.3340000
  16.0670000  11.0910000 -26.6530000  17.3110000  12.8580000 -24.5720000
  16.5970000  13.4630000 -24.7710000  18.0270000  13.4210000 -24.2750000
  17.3120000  13.0070000 -24.5590000   6.6160000  10.6110000 -19.7360000
   6.4590000   9.6670000 -19.7720000   6.5270000  10.9030000 -20.6430000
   6.5840000  10.5270000 -19.8570000  10.8230000  13.9190000 -35.6340000
  11.1270000  13.0260000 -35.4780000  11.3500000  14.4590000 -35.0450000
  10.9290000  13.8740000 -35.5390000  13.4460000   4.4070000 -35.0580000
  13.5500000   4.7510000 -34.1710000  13.3160000   5.1830000 -35.6030000
  13.4430000   4.5500000 -35.0140000  16.0880000   5.2550000 -27.7310000
  17.0000000   5.2660000 -27.4380000  16.0880000   4.6700000 -28.4890000
  16.2050000   5.1810000 -27.7900000  13.9330000   9.5920000 -25.8800000
  13.0580000   9.3350000 -26.1700000  14.2850000   8.8090000 -25.4560000
  13.8660000   9.4590000 -25.8630000   3.6420000  16.5080000 -20.7220000
   3.3900000  17.4120000 -20.5310000   4.5470000  16.4430000 -20.4190000
   3.7260000  16.6160000 -20.6590000   8.2780000   6.0920000 -29.4170000
   8.3640000   5.3080000 -28.8740000   8.7180000   6.7790000 -28.9170000
   8.3450000   6.0800000 -29.2840000  16.9400000   3.7100000 -20.0770000
  16.0410000   3.3820000 -20.0820000  17.2650000   3.5330000 -20.9590000
  16.8660000   3.6450000 -20.1900000  16.9560000  14.8320000 -34.0810000
  17.0770000  15.7070000 -34.4490000  17.1650000  14.2380000 -34.8020000
  16.9980000  14.8680000 -34.2210000  15.3740000   0.2310000 -35.2030000
  15.5020000   1.1460000 -35.4550000  14.4250000   0.1360000 -35.1180000
  15.2690000   0.3360000 -35.2240000   1.3530000  18.3140000 -32.8980000
   0.5720000  18.1830000 -33.4360000   1.3230000  19.2390000 -32.6540000
   1.2490000  18.4160000 -32.9360000  11.4040000  14.1160000 -20.9470000
  11.9860000  13.9520000 -20.2060000  10.8110000  14.8020000 -20.6390000
  11.4020000  14.1830000 -20.8130000   7.7060000  14.5800000 -28.2080000
   7.2260000  13.7720000 -28.0310000   8.4360000  14.5660000 -27.5890000
   7.7380000  14.4750000 -28.1060000  18.5490000   1.5690000 -37.2020000
  18.3730000   2.4100000 -37.6230000  17.7400000   1.0700000 -37.3160000
  18.4230000   1.6130000 -37.2700000  21.1180000   7.4970000 -29.8240000
  21.1320000   7.1840000 -28.9190000  21.0690000   8.4500000 -29.7470000
  21.1140000   7.5790000 -29.6980000  10.5110000   5.4330000 -35.9410000
   9.8850000   4.7090000 -35.9170000  10.7290000   5.5920000 -35.0230000
  10.4590000   5.3610000 -35.8210000   7.2490000   7.0810000 -23.8210000
   6.4040000   6.7610000 -23.5040000   7.7220000   6.2900000 -24.0800000
   7.2010000   6.9390000 -23.8130000   4.1760000  12.2670000 -19.4870000
   4.9870000  11.7790000 -19.6290000   3.9070000  12.5440000 -20.3630000
   4.2450000  12.2400000 -19.6180000   3.0840000  16.8390000 -34.3640000
   2.5020000  17.3370000 -33.7910000   3.3130000  17.4500000 -35.0640000
   3.0390000  16.9810000 -34.3800000  16.9770000   2.9480000 -22.6460000
  16.1110000   2.7840000 -23.0170000  17.5590000   2.3560000 -23.1240000
  16.9410000   2.8510000 -22.7550000  16.6830000   8.3980000 -35.9400000
  16.2260000   8.1570000 -35.1340000  17.6090000   8.2580000 -35.7410000
  16.7430000   8.3490000 -35.8110000  15.4270000  15.0180000 -24.1020000
  15.0760000  14.9150000 -23.2170000  15.5750000  15.9600000 -24.1920000
  15.4010000  15.1250000 -24.0000000  17.5640000  16.7850000 -22.2230000
  17.7620000  16.3900000 -21.3730000  16.8930000  17.4400000 -22.0320000
  17.5030000  16.8180000 -22.0900000  14.8080000   4.1150000 -30.3520000
  15.5040000   3.7290000 -30.8850000  14.1980000   3.3930000 -30.1970000
  14.8190000   3.9730000 -30.4010000  12.8820000   9.5640000 -22.8100000
  12.3250000   9.1700000 -23.4820000  12.3060000  10.1740000 -22.3500000
  12.7370000   9.5920000 -22.8370000  16.7960000   8.8250000 -19.6160000
  15.9730000   9.1650000 -19.9650000  16.6520000   8.7690000 -18.6710000
  16.6730000   8.8610000 -19.5400000  10.7090000   5.5510000 -33.2770000
   9.8860000   5.8340000 -32.8810000  11.3870000   5.9370000 -32.7220000
  10.6910000   5.6360000 -33.1550000   3.7210000   9.1420000 -25.1840000
   3.3440000   9.0150000 -24.3140000   3.1580000   8.6310000 -25.7660000
   3.6010000   9.0610000 -25.1470000  12.7280000  10.6520000 -29.7290000
  13.2730000  11.1530000 -29.1220000  12.0340000  11.2590000 -29.9860000
  12.7090000  10.7930000 -29.6840000   0.7110000  12.2180000 -28.9080000
   1.1050000  12.1480000 -29.7780000   1.3230000  11.7630000 -28.3310000
   0.8400000  12.1510000 -28.9460000  15.4320000   7.8980000 -33.5360000
  15.3890000   8.5170000 -32.8060000  15.0660000   7.0870000 -33.1840000
  15.3800000   7.8740000 -33.3970000  10.1820000   8.7620000 -33.0570000
   9.5100000   8.0810000 -33.0270000  10.2610000   8.9790000 -33.9860000
  10.1060000   8.7030000 -33.1720000  11.3680000  17.7410000 -23.9390000
  10.8190000  17.6720000 -24.7190000  11.7320000  16.8640000 -23.8230000
  11.3450000  17.6200000 -24.0240000   4.8470000   6.0630000 -25.1420000
   4.2570000   5.3240000 -25.2940000   5.4590000   6.0350000 -25.8770000
   4.8500000   5.9650000 -25.2560000   6.2320000  12.2550000 -27.1100000
   6.1920000  11.3000000 -27.1470000   5.7770000  12.4830000 -26.3000000
   6.1690000  12.1620000 -27.0110000  14.1970000   8.9080000 -20.4280000
  13.5060000   8.2680000 -20.2600000  13.9890000   9.2640000 -21.2910000
  14.0820000   8.8710000 -20.5170000  -0.1850000   8.0100000 -33.2910000
   0.4800000   8.6100000 -32.9530000  -1.0170000   8.4440000 -33.1020000
  -0.2060000   8.1420000 -33.2230000   2.1480000  12.4550000 -31.0890000
   2.8270000  12.1750000 -30.4750000   2.2460000  13.4050000 -31.1380000
   2.2470000  12.5410000 -31.0160000   7.5620000  11.1910000 -36.0020000
   7.1790000  10.8820000 -36.8230000   7.8010000  12.1020000 -36.1770000
   7.5440000  11.2680000 -36.1290000   6.3890000   1.4610000 -34.3200000
   6.6340000   0.5860000 -34.0190000   6.1740000   1.9380000 -33.5190000
   6.3930000   1.4100000 -34.1790000  11.6210000   3.2100000 -31.7820000
  11.3270000   3.9250000 -32.3460000  11.3500000   3.4710000 -30.9020000
  11.5490000   3.3350000 -31.7420000  10.0750000  14.8660000 -26.7000000
  10.0110000  14.3460000 -25.8980000  10.6200000  15.6150000 -26.4570000
  10.1360000  14.8950000 -26.5660000  15.5740000  13.7620000 -30.0810000
  14.6590000  13.7720000 -30.3640000  15.6960000  12.8940000 -29.6960000
  15.4720000  13.6520000 -30.0680000   3.2270000   5.7260000 -36.2860000
   2.3020000   5.4830000 -36.2480000   3.2230000   6.6460000 -36.5510000
   3.1090000   5.8130000 -36.3150000   5.1960000  10.0790000 -32.9970000
   6.0190000  10.5650000 -33.0350000   5.2470000   9.5840000 -32.1800000
   5.3080000  10.0780000 -32.8980000   1.8870000  17.9540000 -28.9210000
   1.3450000  18.3770000 -28.2540000   2.7860000  18.1510000 -28.6590000
   1.9320000  18.0340000 -28.8020000   7.4910000  11.7160000 -32.9950000
   6.9680000  12.4190000 -32.6090000   7.5030000  11.9120000 -33.9310000
   7.4260000  11.8310000 -33.0650000  14.5340000   6.5830000 -36.8310000
  15.0120000   6.2300000 -37.5800000  15.0360000   7.3550000 -36.5680000
  14.6590000   6.6370000 -36.8930000   3.4280000  12.0190000 -22.0010000
   3.3900000  12.3360000 -22.9030000   2.5560000  11.6600000 -21.8360000
   3.3110000  12.0130000 -22.0950000   1.0740000  15.7710000 -26.6830000
   1.7290000  16.1320000 -27.2800000   0.3960000  15.4160000 -27.2580000
   1.0710000  15.7720000 -26.8330000   6.3620000   9.7160000 -24.9470000
   6.6870000   8.9130000 -24.5400000   5.4930000   9.4840000 -25.2730000
   6.2920000   9.5840000 -24.9370000  12.4740000   7.7980000 -29.7180000
  12.9720000   7.5910000 -30.5090000  12.6580000   8.7230000 -29.5540000
  12.5610000   7.8900000 -29.7980000   7.0990000   6.5440000 -35.9770000
   6.6180000   5.7270000 -36.1080000   7.5330000   6.7030000 -36.8150000
   7.0930000   6.4600000 -36.1010000   1.0630000  11.5810000 -35.5190000
   1.8300000  11.2580000 -35.0440000   0.3210000  11.3420000 -34.9640000
   1.0660000  11.5090000 -35.3870000  17.1620000  18.5700000 -27.6500000
  17.0150000  17.6270000 -27.5690000  17.8160000  18.7680000 -26.9790000
  17.2270000  18.4740000 -27.5540000  18.4950000  14.8480000 -28.8640000
  17.6510000  15.2610000 -28.6800000  18.3630000  13.9260000 -28.6460000
  18.3700000  14.7830000 -28.8130000   0.4010000   5.3370000 -26.8230000
   1.1990000   4.9870000 -27.2180000   0.3810000   4.9570000 -25.9450000
   0.5000000   5.2430000 -26.7610000   9.7950000   8.3940000 -29.0950000
   9.3880000   9.1540000 -29.5110000  10.6570000   8.3290000 -29.5050000
   9.8530000   8.4830000 -29.2010000  14.3320000   9.6330000 -31.6130000
  15.0060000  10.0450000 -31.0730000  13.5220000  10.0790000 -31.3670000
  14.3150000   9.7430000 -31.5130000  12.7890000   4.1340000 -25.5710000
  12.3350000   4.5760000 -26.2890000  12.2470000   4.3090000 -24.8020000
  12.6620000   4.2130000 -25.5650000  17.9540000   9.0620000 -26.6270000
  17.5650000   8.5880000 -25.8910000  17.4190000   9.8510000 -26.7130000
  17.8360000   9.1020000 -26.5440000  11.3280000   5.6100000 -27.7610000
  11.9540000   6.0600000 -28.3280000  11.1860000   4.7630000 -28.1850000
  11.3900000   5.5590000 -27.8880000   9.8630000  13.4870000 -24.2620000
  10.2560000  14.3080000 -23.9660000   8.9500000  13.5420000 -23.9800000
   9.7970000  13.5990000 -24.1880000  11.3520000   2.3550000 -35.0050000
  10.5930000   2.6030000 -35.5330000  11.9070000   3.1350000 -35.0040000
  11.3260000   2.4870000 -35.0720000   3.8870000   5.6480000 -33.2880000
   3.7970000   5.3770000 -34.2010000   2.9890000   5.8050000 -32.9950000
   3.7600000   5.6340000 -33.3670000  13.4740000   1.5390000 -30.4920000
  12.8120000   1.9450000 -31.0520000  14.1690000   1.2760000 -31.0950000
  13.4780000   1.5580000 -30.6410000  15.0870000   6.7710000 -25.1130000
  14.8220000   6.1190000 -24.4630000  15.3060000   6.2580000 -25.8910000
  15.0810000   6.6220000 -25.1290000   5.8330000   8.5640000 -30.8880000
   6.0210000   7.8120000 -31.4500000   6.6890000   8.9550000 -30.7180000
   5.9660000   8.5180000 -30.9380000   8.2830000  13.7710000 -36.6050000
   9.1270000  13.7330000 -36.1540000   8.5060000  13.9760000 -37.5130000
   8.4200000  13.7920000 -36.6630000   5.3340000   9.5610000 -28.3360000
   5.5910000   9.1430000 -29.1580000   5.4180000   8.8690000 -27.6800000
   5.3780000   9.4190000 -28.3570000  12.6460000  14.0160000 -27.8770000
  12.7440000  14.2630000 -28.7970000  11.7920000  14.3660000 -27.6250000
  12.5490000  14.0920000 -27.9620000  10.0360000  18.4300000 -30.5380000
   9.8510000  17.6030000 -30.9840000   9.7240000  19.1030000 -31.1430000
   9.9720000  18.4100000 -30.6730000  16.1400000   0.3000000 -18.9130000
  15.5990000  -0.2150000 -18.3150000  15.6760000   1.1330000 -19.0000000
  16.0120000   0.3410000 -18.8470000  11.6240000  17.6650000 -37.4480000
  11.7820000  18.5040000 -37.8810000  11.8860000  17.8120000 -36.5390000
  11.6780000  17.7910000 -37.3870000  13.7340000  16.4420000 -27.3380000
  13.1900000  17.0420000 -27.8490000  13.3430000  15.5810000 -27.4840000
  13.6150000  16.4090000 -27.4220000  17.5090000   7.8510000 -23.7150000
  16.6130000   7.5260000 -23.8020000  17.4090000   8.7460000 -23.3900000
  17.3810000   7.9240000 -23.6840000   7.8260000  18.8100000 -28.3650000
   7.7920000  18.1230000 -27.7000000   8.3020000  18.4150000 -29.0950000
   7.8820000  18.6720000 -28.3730000   9.7050000   9.5380000 -35.6770000
  10.4350000  10.1580000 -35.6880000   8.9230000  10.0890000 -35.7080000
   9.6980000   9.6880000 -35.6830000   9.3370000   6.9190000 -26.5610000
   8.8880000   6.1650000 -26.1790000  10.0590000   6.5390000 -27.0610000
   9.3720000   6.7740000 -26.5760000  10.8720000  11.0430000 -24.8490000
  10.5960000  11.8670000 -24.4470000  11.8230000  11.0300000 -24.7400000
  10.9590000  11.1470000 -24.7840000   6.3600000   3.6560000 -32.5780000
   6.2120000   4.5990000 -32.6560000   5.5680000   3.3240000 -32.1540000
   6.2400000   3.7340000 -32.5340000  10.2280000  18.2660000 -26.6000000
  11.0180000  18.8040000 -26.6540000   9.6280000  18.6580000 -27.2340000
  10.2520000  18.3850000 -26.6880000   5.6160000   4.1450000 -35.9830000
   4.6990000   3.9300000 -35.8170000   6.0910000   3.7570000 -35.2480000
   5.5590000   4.0680000 -35.8680000   2.2580000   8.8910000 -22.7120000
   1.5790000   9.5300000 -22.4920000   1.8490000   8.0420000 -22.5490000
   2.1180000   8.8640000 -22.6630000  13.2180000  16.8960000 -31.7480000
  12.8500000  17.4770000 -31.0830000  14.1090000  17.2190000 -31.8820000
  13.2850000  17.0120000 -31.6800000  11.3230000   9.3330000 -26.7630000
  11.0550000   9.9760000 -26.1060000  10.5240000   9.1510000 -27.2590000
  11.1860000   9.3920000 -26.7430000   1.2210000   5.8720000 -32.1000000
   1.6210000   6.4570000 -31.4560000   0.7570000   6.4570000 -32.6990000
   1.2130000   6.0220000 -32.0940000  11.3000000   7.6670000 -24.2010000
  11.1370000   7.9760000 -25.0920000  10.4390000   7.4030000 -23.8780000
  11.1690000   7.6730000 -24.2730000   3.1810000   0.5510000 -36.0550000
   3.1820000   1.2930000 -35.4510000   3.6850000   0.8550000 -36.8090000
   3.2460000   0.6850000 -36.0740000   4.0970000  12.5870000 -35.7710000
   4.1830000  12.5360000 -36.7230000   3.5440000  13.3550000 -35.6220000
   4.0370000  12.6790000 -35.8740000  11.2320000  11.3300000 -21.6650000
  10.4140000  11.1740000 -22.1360000  11.2800000  12.2820000 -21.5760000
  11.1340000  11.4320000 -21.7140000  15.5820000   6.0260000 -20.4340000
  16.2950000   5.3940000 -20.3390000  16.0220000   6.8630000 -20.5800000
  15.7290000   6.0520000 -20.4410000  17.0550000  17.3030000 -24.8650000
  17.3370000  17.2070000 -23.9550000  16.2740000  17.8540000 -24.8160000
  16.9910000  17.3610000 -24.7420000   4.7070000  11.9650000 -29.8060000
   4.6200000  12.7450000 -29.2570000   4.7790000  11.2410000 -29.1830000
   4.7050000  11.9720000 -29.6560000   0.3380000   3.0490000 -34.6010000
   0.2810000   2.7950000 -35.5220000  -0.2100000   3.8310000 -34.5330000
   0.2610000   3.1170000 -34.7100000  16.9760000  16.0810000 -31.4300000
  17.0460000  15.4520000 -30.7130000  17.0420000  15.5490000 -32.2230000
  16.9930000  15.9330000 -31.4400000   6.4340000   6.6680000 -33.2840000
   6.8070000   6.6030000 -34.1630000   5.5290000   6.3720000 -33.3850000
   6.3660000   6.6210000 -33.4090000   6.1330000  13.8250000 -34.8500000
   5.4010000  13.3360000 -35.2260000   6.7930000  13.8380000 -35.5420000
   6.1230000  13.7640000 -34.9860000   8.5790000   3.5650000 -30.8990000
   7.7270000   3.4270000 -31.3110000   8.6290000   4.5120000 -30.7630000
   8.4770000   3.6690000 -30.9340000   1.0790000  17.1700000 -24.2790000
   0.7860000  16.8970000 -25.1490000   0.7710000  18.0720000 -24.1950000
   1.0020000  17.2500000 -24.3800000   9.6240000   7.2360000 -37.6600000
   9.6050000   7.8860000 -36.9580000   9.9790000   6.4480000 -37.2480000
   9.6670000   7.2190000 -37.5180000  14.6070000   2.4860000 -20.2390000
  14.6680000   2.1390000 -21.1290000  13.6670000   2.5340000 -20.0650000
  14.4940000   2.4480000 -20.3310000   4.9940000  14.5340000 -24.8810000
   4.4240000  15.2210000 -24.5340000   4.5420000  13.7180000 -24.6670000
   4.8630000  14.5180000 -24.8090000  11.5860000  16.1150000 -33.7900000
  10.9010000  16.0430000 -33.1250000  12.3840000  16.2930000 -33.2930000
  11.6000000  16.1280000 -33.6410000   9.2970000   1.7390000 -32.8080000
   9.0720000   2.5240000 -32.3090000  10.1960000   1.8910000 -33.1000000
   9.3840000   1.8590000 -32.7810000  14.7240000   1.4590000 -27.9380000
  15.5950000   1.0660000 -27.8810000  14.6250000   1.6900000 -28.8610000
  14.8230000   1.4380000 -28.0490000  14.7490000   5.3240000 -32.6900000
  14.5280000   5.0740000 -31.7920000  15.5650000   4.8580000 -32.8730000
  14.8250000   5.2320000 -32.5980000  12.5950000  15.0870000 -37.5430000
  12.1950000  15.9550000 -37.4930000  12.1190000  14.5660000 -36.8960000
  12.4830000  15.1320000 -37.4540000   8.5520000   3.8740000 -27.5230000
   7.7010000   3.4430000 -27.6100000   8.6510000   4.0210000 -26.5820000
   8.4550000   3.8380000 -27.4140000   5.9740000  13.4080000 -31.6870000
   5.3380000  12.9530000 -31.1360000   5.4860000  14.1420000 -32.0600000
   5.8310000  13.4440000 -31.6640000  11.8520000  15.0790000 -23.4820000
  11.6490000  14.7690000 -22.6000000  12.3660000  14.3710000 -23.8720000
  11.8920000  14.9480000 -23.4190000  14.4970000  12.6810000 -20.8350000
  13.8570000  12.1480000 -20.3630000  14.4590000  12.3580000 -21.7360000
  14.4100000  12.5710000 -20.8900000   0.6240000  14.4030000 -23.3310000
   0.2420000  15.2460000 -23.0870000   1.4480000  14.6290000 -23.7620000
   0.6800000  14.5400000 -23.3550000  17.1640000  10.5180000 -23.0180000
  16.2730000  10.7340000 -22.7400000  17.4410000  11.2710000 -23.5400000
  17.0850000  10.6420000 -23.0490000  16.2320000  12.5400000 -32.5860000
  16.2540000  12.6560000 -31.6360000  16.4050000  13.4130000 -32.9370000
  16.2570000  12.6670000 -32.5090000  15.6070000  18.4800000 -32.2790000
  15.3430000  18.4450000 -33.1980000  16.2290000  17.7590000 -32.1800000
  15.6530000  18.3830000 -32.3840000  12.7810000  18.4760000 -34.7680000
  12.2650000  17.7910000 -34.3420000  12.2980000  19.2830000 -34.5940000
  12.6530000  18.4910000 -34.6910000  12.5180000  20.0190000 -26.4670000
  13.2930000  19.8630000 -27.0060000  12.4870000  20.9700000 -26.3610000
  12.6130000  20.1210000 -26.5220000   9.0880000  16.4310000 -32.2380000
   8.8500000  15.6180000 -31.7940000   8.2830000  16.7090000 -32.6750000
   8.9550000  16.3630000 -32.2370000  14.2810000  15.8510000 -20.9310000
  14.5510000  14.9470000 -20.7710000  13.3290000  15.8380000 -20.8300000
  14.1940000  15.7340000 -20.8970000  14.5910000  11.5570000 -23.2340000
  13.9810000  10.8210000 -23.1780000  14.1590000  12.1810000 -23.8170000
  14.4580000  11.5420000 -23.3010000   3.6890000  12.1450000 -24.8090000
   3.2280000  12.4890000 -25.5740000   3.7700000  11.2070000 -24.9810000
   3.6400000  12.0690000 -24.9290000   1.8850000   9.7860000 -32.6240000
   2.8410000   9.8180000 -32.5970000   1.6140000  10.7030000 -32.5860000
   1.9730000   9.9070000 -32.6160000   3.2440000   3.0760000 -34.6530000
   3.5520000   3.1410000 -33.7490000   2.3260000   2.8180000 -34.5740000
   3.1660000   3.0510000 -34.5270000  12.5530000   7.3370000 -32.2690000
  13.1730000   7.7810000 -32.8480000  11.7430000   7.8410000 -32.3540000
  12.5290000   7.4590000 -32.3540000  -0.8270000  13.3890000 -36.3080000
  -0.1990000  12.8660000 -35.8090000  -0.3330000  13.6950000 -37.0690000
  -0.6830000  13.3610000 -36.3410000   4.8450000  15.4730000 -33.0370000
   4.1450000  15.8710000 -33.5540000   5.2770000  14.8700000 -33.6430000
   4.8110000  15.4470000 -33.1810000  13.4460000  13.4160000 -25.2150000
  13.2730000  13.3390000 -26.1530000  14.2290000  13.9630000 -25.1600000
  13.5240000  13.4760000 -25.3280000   8.2640000   9.8000000 -30.8960000
   8.7780000   9.2000000 -31.4360000   7.9900000  10.4900000 -31.5000000
   8.2940000   9.8110000 -31.0420000  15.2920000  18.3670000 -21.6050000
  15.7010000  18.5390000 -20.7570000  15.0230000  17.4500000 -21.5600000
  15.3100000  18.2720000 -21.4910000  14.3060000   3.0290000 -23.3370000
  14.0190000   3.8550000 -22.9460000  14.0830000   3.1130000 -24.2640000
  14.2400000   3.1460000 -23.4050000  17.9590000  17.6590000 -34.6070000
  18.5460000  17.4820000 -35.3420000  17.3680000  18.3390000 -34.9310000
  17.9580000  17.7230000 -34.7430000  17.7990000  16.0140000 -19.6120000
  17.0270000  16.0450000 -19.0480000  18.4160000  16.6240000 -19.2060000
  17.7790000  16.0960000 -19.4870000  18.3210000   4.3650000 -30.8510000
  18.9030000   4.8500000 -31.4370000  17.7550000   5.0350000 -30.4680000
  18.3230000   4.5130000 -30.8770000  12.7000000  11.1410000 -19.5430000
  11.8890000  11.1790000 -20.0500000  13.0640000  10.2780000 -19.7380000
  12.6430000  11.0360000 -19.6330000  -0.3550000   9.7740000 -30.4080000
   0.2420000  10.0300000 -31.1120000  -0.0520000  10.2690000 -29.6460000
  -0.2400000   9.8700000 -30.4010000   2.3260000  13.2810000 -26.6030000
   2.5850000  13.9740000 -27.2110000   1.4540000  13.5400000 -26.3040000
   2.2480000  13.4030000 -26.6430000  16.0140000  10.8710000 -29.6220000
  16.8670000  10.5300000 -29.8920000  16.0360000  10.8420000 -28.6660000
  16.1260000  10.8230000 -29.5350000   8.9440000   7.7820000 -21.7170000
   8.1900000   7.4520000 -22.2060000   8.7430000   7.5840000 -20.8030000
   8.8220000   7.7140000 -21.6630000  12.4940000   7.1050000 -19.6480000
  11.7100000   7.0660000 -19.1000000  13.1310000   6.5540000 -19.1940000
  12.4750000   7.0300000 -19.5200000  18.0900000   0.8970000 -30.1140000
  17.4940000   0.5470000 -29.4520000  18.8080000   0.2650000 -30.1490000
  18.1060000   0.7720000 -30.0340000  14.1600000  11.5420000 -34.4070000
  14.5560000  11.8830000 -33.6050000  14.6510000  11.9610000 -35.1140000
  14.2730000  11.6390000 -34.3950000  13.8890000   5.6280000 -22.4450000
  14.5820000   5.8220000 -21.8130000  13.2530000   6.3340000 -22.3270000
  13.8960000   5.7430000 -22.3490000  14.3540000  17.8980000 -24.9700000
  13.8810000  18.7310000 -24.9770000  13.8230000  17.3170000 -25.5140000
  14.2250000  17.9300000 -25.0400000   6.4660000   2.5690000 -42.9860000
   6.6940000   2.5410000 -42.0570000   5.8370000   1.8570000 -43.0990000
   6.4150000   2.4740000 -42.8810000   3.8650000  16.7550000 -42.7260000
   2.9110000  16.6870000 -42.7580000   4.0540000  17.0620000 -41.8400000
   3.7670000  16.7860000 -42.6170000   4.3820000   0.8550000 -43.4800000
   3.8220000   1.3030000 -42.8460000   4.2360000  -0.0760000 -43.3130000
   4.2920000   0.7930000 -43.3780000   9.1340000   0.7420000 -37.3490000
  10.0260000   0.5130000 -37.6130000   8.6120000   0.6210000 -38.1420000
   9.1820000   0.6980000 -37.4840000  11.0190000   4.1310000 -42.3580000
  11.1970000   3.2490000 -42.0330000  11.3380000   4.7110000 -41.6670000
  11.0830000   4.0920000 -42.2280000   8.9090000  10.3660000 -41.5870000
   8.7810000   9.5010000 -41.1980000   9.3520000  10.1910000 -42.4180000
   8.9490000  10.2330000 -41.6440000   0.0330000   4.6960000 -43.0300000
   0.3100000   5.2650000 -42.3120000  -0.5690000   4.0730000 -42.6230000
  -0.0080000   4.6890000 -42.8860000   0.9060000  11.0330000 -40.4370000
  -0.0150000  10.8130000 -40.5770000   0.9860000  11.1400000 -39.4900000
   0.7980000  11.0180000 -40.3340000  12.2860000  18.0470000 -47.9800000
  12.8720000  18.7840000 -48.1550000  11.5040000  18.2330000 -48.4990000
  12.2610000  18.1650000 -48.0690000   2.7270000   1.6980000 -41.4420000
   2.9340000   2.5960000 -41.1850000   2.3710000   1.2970000 -40.6490000
   2.7080000   1.7610000 -41.3080000  11.0750000   6.1870000 -40.4430000
  11.6610000   6.5000000 -39.7540000  10.3490000   6.8120000 -40.4430000
  11.0570000   6.3070000 -40.3550000   5.8090000  16.3530000 -46.2940000
   5.5480000  15.9780000 -45.4530000   6.5400000  15.8080000 -46.5830000
   5.8690000  16.2350000 -46.2240000   4.0470000  14.5460000 -47.5790000
   3.3230000  14.8490000 -48.1270000   4.6410000  15.2960000 -47.5310000
   4.0310000  14.6810000 -47.6430000   0.5960000   4.7000000 -37.3890000
   0.3980000   4.7810000 -38.3210000  -0.1980000   5.0030000 -36.9470000
   0.4690000   4.7490000 -37.4520000   6.6700000   7.2630000 -45.9660000
   7.5510000   7.5550000 -45.7330000   6.7560000   6.9290000 -46.8580000
   6.7940000   7.2580000 -46.0510000   0.5640000  13.7260000 -38.6320000
  -0.1980000  14.2940000 -38.7490000   0.7690000  13.4160000 -39.5140000
   0.4920000  13.7590000 -38.7600000   2.6350000  15.0210000 -37.2950000
   3.1180000  15.5820000 -37.9020000   2.1920000  14.3850000 -37.8560000
   2.6400000  15.0120000 -37.4440000   6.2610000  16.7570000 -38.4970000
   6.8350000  16.6700000 -37.7360000   6.2190000  17.6990000 -38.6590000
   6.3290000  16.8660000 -38.4210000  10.9670000   3.0820000 -47.7820000
  10.0150000   3.0190000 -47.7110000  11.2950000   2.3540000 -47.2540000
  10.8870000   2.9810000 -47.7050000  16.0960000  11.0900000 -45.6600000
  16.5360000  11.5970000 -44.9770000  15.4240000  10.5930000 -45.1940000
  16.0670000  11.0910000 -45.5130000  17.3110000  12.8580000 -43.4320000
  16.5970000  13.4630000 -43.6310000  18.0270000  13.4210000 -43.1350000
  17.3120000  13.0070000 -43.4190000   6.6160000  10.6110000 -38.5960000
   6.4590000   9.6670000 -38.6320000   6.5270000  10.9030000 -39.5030000
   6.5840000  10.5270000 -38.7170000  16.0880000   5.2550000 -46.5910000
  17.0000000   5.2660000 -46.2980000  16.0880000   4.6700000 -47.3490000
  16.2050000   5.1810000 -46.6500000  13.9330000   9.5920000 -44.7400000
  13.0580000   9.3350000 -45.0300000  14.2850000   8.8090000 -44.3150000
  13.8660000   9.4590000 -44.7230000   3.6420000  16.5080000 -39.5820000
   3.3900000  17.4120000 -39.3910000   4.5470000  16.4430000 -39.2790000
   3.7260000  16.6160000 -39.5190000   0.8440000   1.4970000 -46.0270000
   1.6780000   1.9510000 -46.1510000   0.2560000   1.8960000 -46.6670000
   0.8760000   1.6060000 -46.1240000   1.9430000   0.6300000 -39.0150000
   1.1100000   0.2030000 -38.8140000   1.9100000   1.4570000 -38.5350000
   1.8320000   0.6810000 -38.9280000   8.2780000   6.0920000 -48.2770000
   8.3640000   5.3080000 -47.7330000   8.7180000   6.7790000 -47.7770000
   8.3450000   6.0800000 -48.1440000  16.9400000   3.7100000 -38.9370000
  16.0410000   3.3820000 -38.9420000  17.2650000   3.5330000 -39.8190000
  16.8660000   3.6450000 -39.0500000  11.4040000  14.1160000 -39.8070000
  11.9860000  13.9520000 -39.0660000  10.8110000  14.8020000 -39.4990000
  11.4020000  14.1830000 -39.6730000   7.7060000  14.5800000 -47.0680000
   7.2260000  13.7720000 -46.8910000   8.4360000  14.5660000 -46.4490000
   7.7380000  14.4750000 -46.9660000  21.1180000   7.4970000 -48.6840000
  21.1320000   7.1840000 -47.7790000  21.0690000   8.4500000 -48.6070000
  21.1140000   7.5790000 -48.5580000   7.2490000   7.0810000 -42.6810000
   6.4040000   6.7610000 -42.3640000   7.7220000   6.2900000 -42.9400000
   7.2010000   6.9390000 -42.6730000   4.1760000  12.2670000 -38.3470000
   4.9870000  11.7790000 -38.4890000   3.9070000  12.5440000 -39.2230000
   4.2450000  12.2400000 -38.4780000  16.9770000   2.9480000 -41.5060000
  16.1110000   2.7840000 -41.8770000  17.5590000   2.3560000 -41.9830000
  16.9410000   2.8510000 -41.6150000   6.4380000  11.3070000 -41.3190000
   7.3180000  10.9340000 -41.3710000   5.9000000  10.7260000 -41.8560000
   6.4820000  11.1850000 -41.3940000  15.4270000  15.0180000 -42.9620000
  15.0760000  14.9150000 -42.0770000  15.5750000  15.9600000 -43.0520000
  15.4010000  15.1250000 -42.8600000  17.5640000  16.7850000 -41.0830000
  17.7620000  16.3900000 -40.2330000  16.8930000  17.4400000 -40.8920000
  17.5030000  16.8180000 -40.9500000  12.8820000   9.5640000 -41.6700000
  12.3250000   9.1700000 -42.3420000  12.3060000  10.1740000 -41.2100000
  12.7370000   9.5920000 -41.6970000  16.7960000   8.8250000 -38.4760000
  15.9730000   9.1650000 -38.8250000  16.6520000   8.7690000 -37.5310000
  16.6730000   8.8610000 -38.4000000   3.7210000   9.1420000 -44.0440000
   3.3440000   9.0150000 -43.1740000   3.1580000   8.6310000 -44.6260000
   3.6010000   9.0610000 -44.0070000  12.7280000  10.6520000 -48.5890000
  13.2730000  11.1530000 -47.9820000  12.0340000  11.2590000 -48.8460000
  12.7090000  10.7930000 -48.5440000   0.7110000  12.2180000 -47.7680000
   1.1050000  12.1480000 -48.6380000   1.3230000  11.7630000 -47.1900000
   0.8400000  12.1510000 -47.8060000   3.8690000   3.6150000 -37.9530000
   3.7160000   3.8950000 -38.8560000   3.6320000   4.3750000 -37.4230000
   3.8190000   3.7480000 -38.0010000  11.3680000  17.7410000 -42.7990000
  10.8190000  17.6720000 -43.5790000  11.7320000  16.8640000 -42.6830000
  11.3450000  17.6200000 -42.8840000   5.8020000   7.7360000 -38.8480000
   5.6870000   7.4520000 -39.7550000   4.9110000   7.8390000 -38.5150000
   5.6730000   7.7130000 -38.9220000   4.8470000   6.0630000 -44.0020000
   4.2570000   5.3240000 -44.1540000   5.4590000   6.0350000 -44.7370000
   4.8500000   5.9650000 -44.1160000   6.2320000  12.2550000 -45.9700000
   6.1920000  11.3000000 -46.0070000   5.7770000  12.4830000 -45.1600000
   6.1690000  12.1620000 -45.8710000  14.1970000   8.9080000 -39.2880000
  13.5060000   8.2680000 -39.1200000  13.9890000   9.2640000 -40.1510000
  14.0820000   8.8710000 -39.3770000  10.0750000  14.8660000 -45.5600000
  10.0110000  14.3460000 -44.7580000  10.6200000  15.6150000 -45.3170000
  10.1360000  14.8950000 -45.4260000   1.8870000  17.9540000 -47.7810000
   1.3450000  18.3770000 -47.1140000   2.7860000  18.1510000 -47.5190000
   1.9320000  18.0340000 -47.6620000   3.4280000  12.0190000 -40.8610000
   3.3900000  12.3360000 -41.7630000   2.5560000  11.6600000 -40.6960000
   3.3110000  12.0130000 -40.9550000   7.3360000  13.7590000 -42.2860000
   6.5530000  14.1650000 -42.6550000   7.0480000  12.8880000 -42.0130000
   7.1990000  13.6990000 -42.2980000   1.0740000  15.7710000 -45.5430000
   1.7290000  16.1320000 -46.1400000   0.3960000  15.4160000 -46.1180000
   1.0710000  15.7720000 -45.6930000  16.3860000  -2.3370000 -46.2920000
  16.5320000  -1.9320000 -45.4370000  15.4410000  -2.2690000 -46.4310000
  16.2840000  -2.2770000 -46.2000000   6.3620000   9.7160000 -43.8070000
   6.6870000   8.9130000 -43.4000000   5.4930000   9.4840000 -44.1330000
   6.2920000   9.5840000 -43.7970000   1.9780000  10.6500000 -37.8380000
   2.7810000  11.1600000 -37.9470000   1.5280000  11.0680000 -37.1040000
   2.0230000  10.7690000 -37.7580000  17.1620000  18.5700000 -46.5100000
  17.0150000  17.6270000 -46.4280000  17.8160000  18.7680000 -45.8390000
  17.2270000  18.4740000 -46.4140000  18.4950000  14.8480000 -47.7240000
  17.6510000  15.2610000 -47.5400000  18.3630000  13.9260000 -47.5060000
  18.3700000  14.7830000 -47.6730000   0.4010000   5.3370000 -45.6830000
   1.1990000   4.9870000 -46.0780000   0.3810000   4.9570000 -44.8050000
   0.5000000   5.2430000 -45.6210000   9.7950000   8.3940000 -47.9550000
   9.3880000   9.1540000 -48.3710000  10.6570000   8.3290000 -48.3650000
   9.8530000   8.4830000 -48.0610000   2.4860000  10.1240000 -46.9700000
   3.4430000  10.1080000 -46.9890000   2.2410000   9.3100000 -46.5300000
   2.5770000  10.0180000 -46.9160000  12.7890000   4.1340000 -44.4310000
  12.3350000   4.5760000 -45.1490000  12.2470000   4.3090000 -43.6620000
  12.6620000   4.2130000 -44.4250000  17.9540000   9.0620000 -45.4870000
  17.5650000   8.5880000 -44.7510000  17.4190000   9.8510000 -45.5730000
  17.8360000   9.1020000 -45.4040000  11.3280000   5.6100000 -46.6210000
  11.9540000   6.0600000 -47.1880000  11.1860000   4.7630000 -47.0450000
  11.3900000   5.5590000 -46.7480000   9.8630000  13.4870000 -43.1220000
  10.2560000  14.3080000 -42.8260000   8.9500000  13.5420000 -42.8400000
   9.7970000  13.5990000 -43.0480000   7.4890000   3.4240000 -40.5080000
   8.4110000   3.5000000 -40.2640000   7.0370000   4.0410000 -39.9330000
   7.5490000   3.5120000 -40.4040000   4.4800000   0.4340000 -47.5890000
   4.6510000   1.3550000 -47.3900000   5.0460000  -0.0500000 -46.9880000
   4.5740000   0.4900000 -47.4870000   5.3340000   9.5610000 -47.1960000
   5.5910000   9.1430000 -48.0180000   5.4180000   8.8690000 -46.5400000
   5.3780000   9.4190000 -47.2170000  12.6460000  14.0160000 -46.7370000
  12.7440000  14.2630000 -47.6570000  11.7920000  14.3660000 -46.4850000
  12.5490000  14.0920000 -46.8220000  16.1400000   0.3000000 -37.7730000
  15.5990000  -0.2150000 -37.1750000  15.6760000   1.1330000 -37.8600000
  16.0120000   0.3410000 -37.7070000  13.7340000  16.4420000 -46.1980000
  13.1900000  17.0420000 -46.7090000  13.3430000  15.5810000 -46.3440000
  13.6150000  16.4090000 -46.2820000  17.5090000   7.8510000 -42.5750000
  16.6130000   7.5260000 -42.6620000  17.4090000   8.7460000 -42.2500000
  17.3810000   7.9240000 -42.5440000   7.8260000  18.8100000 -47.2250000
   7.7920000  18.1230000 -46.5600000   8.3020000  18.4150000 -47.9550000
   7.8820000  18.6720000 -47.2330000   9.3370000   6.9190000 -45.4210000
   8.8880000   6.1650000 -45.0390000  10.0590000   6.5390000 -45.9210000
   9.3720000   6.7740000 -45.4360000  10.8720000  11.0430000 -43.7090000
  10.5960000  11.8670000 -43.3070000  11.8230000  11.0300000 -43.6000000
  10.9590000  11.1470000 -43.6440000  10.2280000  18.2660000 -45.4600000
  11.0180000  18.8040000 -45.5140000   9.6280000  18.6580000 -46.0940000
  10.2520000  18.3850000 -45.5480000  10.0110000   4.0000000 -39.0190000
   9.5450000   4.5980000 -38.4350000  10.6060000   4.5640000 -39.5140000
  10.0270000   4.1480000 -39.0080000   2.2580000   8.8910000 -41.5720000
   1.5790000   9.5300000 -41.3520000   1.8490000   8.0420000 -41.4090000
   2.1180000   8.8640000 -41.5230000   0.4060000   1.8000000 -42.9900000
   1.2680000   1.7610000 -42.5760000   0.5920000   1.9500000 -43.9170000
   0.5400000   1.8140000 -43.0560000  11.3230000   9.3330000 -45.6230000
  11.0550000   9.9760000 -44.9650000  10.5240000   9.1510000 -46.1190000
  11.1860000   9.3920000 -45.6030000  -0.1350000   6.9710000 -39.0030000
  -0.7350000   7.7040000 -38.8620000   0.4120000   6.9540000 -38.2170000
  -0.1420000   7.0630000 -38.8840000  11.3000000   7.6670000 -43.0610000
  11.1370000   7.9760000 -43.9520000  10.4390000   7.4030000 -42.7380000
  11.1690000   7.6730000 -43.1330000  11.5220000   1.8880000 -38.9230000
  11.5190000   1.5980000 -39.8350000  10.8500000   2.5690000 -38.8860000
  11.4350000   1.9380000 -39.0350000  11.2320000  11.3300000 -40.5250000
  10.4140000  11.1740000 -40.9960000  11.2800000  12.2820000 -40.4360000
  11.1340000  11.4320000 -40.5740000  15.5820000   6.0260000 -39.2940000
  16.2950000   5.3940000 -39.1990000  16.0220000   6.8630000 -39.4400000
  15.7290000   6.0520000 -39.3010000   1.6110000   7.8080000 -45.7720000
   0.8320000   8.3140000 -45.5410000   1.3490000   6.8950000 -45.6490000
   1.4780000   7.7560000 -45.7270000  17.0550000  17.3030000 -43.7250000
  17.3370000  17.2070000 -42.8150000  16.2740000  17.8540000 -43.6760000
  16.9910000  17.3610000 -43.6020000   4.7070000  11.9650000 -48.6660000
   4.6200000  12.7450000 -48.1170000   4.7790000  11.2410000 -48.0430000
   4.7050000  11.9720000 -48.5160000   4.8090000   7.1060000 -41.4820000
   4.7180000   6.9860000 -42.4270000   4.0850000   7.6840000 -41.2440000
   4.7050000   7.1650000 -41.5730000   1.0790000  17.1700000 -43.1390000
   0.7860000  16.8970000 -44.0090000   0.7710000  18.0720000 -43.0550000
   1.0020000  17.2500000 -43.2400000   3.4510000   4.2330000 -40.5680000
   4.2420000   4.2660000 -41.1050000   3.0910000   5.1190000 -40.6160000
   3.5060000   4.3500000 -40.6430000  14.6070000   2.4860000 -39.0990000
  14.6680000   2.1390000 -39.9890000  13.6670000   2.5340000 -38.9250000
  14.4940000   2.4480000 -39.1910000   4.9940000  14.5340000 -43.7410000
   4.4240000  15.2210000 -43.3940000   4.5420000  13.7180000 -43.5270000
   4.8630000  14.5180000 -43.6690000  14.7240000   1.4590000 -46.7980000
  15.5950000   1.0660000 -46.7410000  14.6250000   1.6900000 -47.7210000
  14.8230000   1.4380000 -46.9090000  11.6320000   1.7260000 -41.6640000
  11.3720000   0.9500000 -42.1610000  12.5880000   1.7310000 -41.7120000
  11.7210000   1.6270000 -41.7330000   8.5520000   3.8740000 -46.3830000
   7.7010000   3.4430000 -46.4700000   8.6510000   4.0210000 -45.4420000
   8.4550000   3.8380000 -46.2740000  11.8520000  15.0790000 -42.3420000
  11.6490000  14.7690000 -41.4600000  12.3660000  14.3710000 -42.7320000
  11.8920000  14.9480000 -42.2790000  14.4970000  12.6810000 -39.6950000
  13.8570000  12.1480000 -39.2230000  14.4590000  12.3580000 -40.5960000
  14.4100000  12.5710000 -39.7500000   8.2640000  15.0490000 -39.5600000
   7.8770000  14.6840000 -40.3560000   7.6160000  15.6780000 -39.2450000
   8.1310000  15.0820000 -39.6210000   0.6240000  14.4030000 -42.1900000
   0.2420000  15.2460000 -41.9470000   1.4480000  14.6290000 -42.6220000
   0.6800000  14.5400000 -42.2150000   2.5270000   4.0290000 -46.7690000
   2.4330000   3.5620000 -47.5990000   3.3500000   3.7060000 -46.4040000
   2.6200000   3.9280000 -46.8280000  17.1640000  10.5180000 -41.8780000
  16.2730000  10.7340000 -41.6000000  17.4410000  11.2710000 -42.4000000
  17.0850000  10.6420000 -41.9090000   4.6900000   3.2870000 -45.5130000
   5.1420000   2.7080000 -44.8990000   5.2530000   3.3020000 -46.2860000
   4.8200000   3.2150000 -45.5330000   1.2720000   6.3870000 -41.2440000
   0.7060000   6.7480000 -41.9260000   0.7760000   6.5030000 -40.4340000
   1.1360000   6.4480000 -41.2280000  12.5180000  20.0190000 -45.3270000
  13.2930000  19.8630000 -45.8660000  12.4870000  20.9700000 -45.2210000
  12.6130000  20.1210000 -45.3820000  14.2810000  15.8510000 -39.7910000
  14.5510000  14.9470000 -39.6310000  13.3290000  15.8380000 -39.6900000
  14.1940000  15.7340000 -39.7570000  14.5910000  11.5570000 -42.0940000
  13.9810000  10.8210000 -42.0380000  14.1590000  12.1810000 -42.6770000
  14.4580000  11.5420000 -42.1610000   3.6890000  12.1450000 -43.6690000
   3.2280000  12.4890000 -44.4340000   3.7700000  11.2070000 -43.8400000
   3.6400000  12.0690000 -43.7890000   6.7250000   5.2450000 -38.5410000
   5.9600000   4.8480000 -38.1230000   6.4710000   6.1560000 -38.6890000
   6.5940000   5.3110000 -38.5060000  13.4460000  13.4160000 -44.0750000
  13.2730000  13.3390000 -45.0130000  14.2290000  13.9630000 -44.0200000
  13.5240000  13.4760000 -44.1880000  15.2920000  18.3670000 -40.4650000
  15.7010000  18.5390000 -39.6170000  15.0230000  17.4500000 -40.4200000
  15.3100000  18.2720000 -40.3510000  14.3060000   3.0290000 -42.1970000
  14.0190000   3.8550000 -41.8060000  14.0830000   3.1130000 -43.1240000
  14.2400000   3.1460000 -42.2650000  17.7990000  16.0140000 -38.4720000
  17.0270000  16.0450000 -37.9080000  18.4160000  16.6240000 -38.0660000
  17.7790000  16.0960000 -38.3470000  12.7000000  11.1410000 -38.4030000
  11.8890000  11.1790000 -38.9100000  13.0640000  10.2780000 -38.5980000
  12.6430000  11.0360000 -38.4930000   6.0400000   3.1840000 -47.8450000
   5.8620000   3.7740000 -48.5770000   6.5250000   2.4570000 -48.2350000
   6.0790000   3.1670000 -47.9880000   2.3260000  13.2810000 -45.4630000
   2.5850000  13.9740000 -46.0710000   1.4540000  13.5400000 -45.1640000
   2.2480000  13.4030000 -45.5030000  16.0140000  10.8710000 -48.4820000
  16.8670000  10.5300000 -48.7520000  16.0360000  10.8420000 -47.5260000
  16.1260000  10.8230000 -48.3950000   8.9440000   7.7820000 -40.5770000
   8.1900000   7.4520000 -41.0650000   8.7430000   7.5840000 -39.6630000
   8.8220000   7.7140000 -40.5230000  12.4940000   7.1050000 -38.5080000
  11.7100000   7.0660000 -37.9600000  13.1310000   6.5540000 -38.0540000
  12.4750000   7.0300000 -38.3800000  18.0900000   0.8970000 -48.9740000
  17.4940000   0.5470000 -48.3120000  18.8080000   0.2650000 -49.0090000
  18.1060000   0.7720000 -48.8940000  13.8890000   5.6280000 -41.3050000
  14.5820000   5.8220000 -40.6730000  13.2530000   6.3340000 -41.1870000
  13.8960000   5.7430000 -41.2090000  14.3540000  17.8980000 -43.8300000
  13.8810000  18.7310000 -43.8370000  13.8230000  17.3170000 -44.3740000
  14.2250000  17.9300000 -43.9000000   8.6300000  -4.6680000  44.7380000
   8.4560000  -4.5070000  45.6650000   7.8650000  -5.1540000  44.4320000
   8.5100000  -4.7100000  44.8180000   5.2010000  -9.7710000  40.0680000
   5.0470000  -9.3140000  40.8950000   5.9130000 -10.3810000  40.2600000
   5.2720000  -9.7910000  40.1980000  15.3620000  -3.6120000  38.2550000
  14.5000000  -3.2840000  37.9980000  15.2660000  -4.5640000  38.2530000
  15.2390000  -3.6920000  38.2220000   2.0880000  -3.5150000  45.0320000
   2.1260000  -2.6220000  44.6870000   1.2890000  -3.5360000  45.5580000
   1.9910000  -3.4030000  45.0550000   6.7990000  -1.7250000  41.7200000
   6.0000000  -2.2520000  41.7300000   7.1430000  -1.8280000  40.8330000
   6.7410000  -1.8060000  41.6080000  10.7070000  -6.7400000  44.1870000
  10.2810000  -7.3470000  43.5830000  10.0440000  -6.0730000  44.3650000
  10.5680000  -6.7320000  44.1330000  16.4590000 -16.1080000  43.4400000
  16.5270000 -17.0550000  43.3170000  17.3280000 -15.8430000  43.7420000
  16.5790000 -16.1950000  43.4640000  17.5780000 -11.8170000  45.2820000
  16.7990000 -11.7070000  45.8270000  17.9220000 -10.9310000  45.1720000
  17.5220000 -11.6900000  45.3370000   8.6740000 -15.6890000  39.4300000
   8.4080000 -16.1520000  40.2240000   8.6900000 -16.3660000  38.7530000
   8.6420000 -15.8350000  39.4450000  11.7850000  -7.5490000  39.7320000
  12.5550000  -7.5280000  40.2990000  12.1040000  -7.9160000  38.9090000
  11.9240000  -7.5930000  39.6990000  17.5210000  -7.9120000  41.4630000
  17.1550000  -7.2710000  42.0730000  16.7560000  -8.3340000  41.0700000
  17.3760000  -7.8840000  41.4900000  15.5030000  -6.3120000  38.4800000
  15.5450000  -6.4460000  37.5320000  16.3890000  -6.0450000  38.7220000
  15.6220000  -6.2950000  38.3890000  15.8460000 -15.8820000  40.5670000
  15.9780000 -16.0260000  41.5050000  14.9780000 -15.4830000  40.5070000
  15.7520000 -15.8500000  40.6800000  12.4960000  -4.1450000  45.0680000
  12.6720000  -3.2950000  44.6650000  11.7370000  -4.4820000  44.5940000
  12.4220000  -4.0790000  44.9570000  12.2860000  -0.8200000  46.3200000
  12.8720000  -0.0830000  46.1450000  11.5040000  -0.6340000  45.8020000
  12.2610000  -0.7020000  46.2320000   4.6080000 -13.5650000  44.8400000
   4.2010000 -13.5660000  43.9730000   4.1220000 -12.9020000  45.3320000
   4.4940000 -13.4800000  44.7930000   4.0350000 -16.3780000  43.5580000
   3.2770000 -16.3910000  44.1430000   4.5670000 -17.1220000  43.8390000
   4.0060000 -16.4750000  43.6690000   8.6950000 -12.1790000  43.3890000
   7.8700000 -12.1970000  42.9040000   8.4440000 -12.3650000  44.2940000
   8.5570000 -12.2050000  43.4430000   5.8090000  -2.5140000  48.0070000
   5.5480000  -2.8890000  48.8480000   6.5400000  -3.0590000  47.7180000
   5.8690000  -2.6320000  48.0770000   4.0470000  -4.3210000  46.7220000
   3.3230000  -4.0180000  46.1730000   4.6410000  -3.5710000  46.7690000
   4.0310000  -4.1860000  46.6570000   3.5200000 -10.5570000  38.0590000
   2.9170000  -9.8200000  37.9640000   4.1490000 -10.2670000  38.7200000
   3.5230000 -10.4260000  38.1320000   7.9470000  -2.0950000  39.3520000
   8.4060000  -2.9170000  39.5240000   8.6450000  -1.4550000  39.2140000
   8.0950000  -2.1180000  39.3570000   6.6700000 -11.6040000  48.3340000
   7.5510000 -11.3120000  48.5670000   6.7560000 -11.9380000  47.4420000
   6.7940000 -11.6090000  48.2500000  10.9670000 -15.7850000  46.5180000
  10.0150000 -15.8480000  46.5890000  11.2950000 -16.5130000  47.0470000
  10.8870000 -15.8860000  46.5950000  16.0960000  -7.7770000  48.6400000
  16.5360000  -7.2700000  49.3230000  15.4240000  -8.2740000  49.1070000
  16.0670000  -7.7760000  48.7870000  10.8230000  -4.9480000  39.8070000
  11.1270000  -5.8410000  39.9630000  11.3500000  -4.4080000  40.3950000
  10.9290000  -4.9930000  39.9010000  13.4460000 -14.4600000  40.3820000
  13.5500000 -14.1160000  41.2690000  13.3160000 -13.6840000  39.8380000
  13.4430000 -14.3170000  40.4270000  16.0880000 -13.6120000  47.7090000
  17.0000000 -13.6010000  48.0030000  16.0880000 -14.1970000  46.9520000
  16.2050000 -13.6860000  47.6500000   5.6750000 -17.2860000  38.3690000
   6.0170000 -17.2770000  39.2630000   5.1900000 -16.4640000  38.2910000
   5.6570000 -17.1790000  38.4730000   0.8440000 -17.3700000  48.2730000
   1.6780000 -16.9160000  48.1500000   0.2560000 -16.9710000  47.6330000
   0.8760000 -17.2610000  48.1770000   8.2780000 -12.7750000  46.0230000
   8.3640000 -13.5590000  46.5670000   8.7180000 -12.0880000  46.5230000
   8.3450000 -12.7870000  46.1570000  16.9560000  -4.0350000  41.3600000
  17.0770000  -3.1600000  40.9920000  17.1650000  -4.6290000  40.6380000
  16.9980000  -3.9990000  41.2190000  15.3740000 -18.6360000  40.2380000
  15.5020000 -17.7210000  39.9860000  14.4250000 -18.7310000  40.3220000
  15.2690000 -18.5310000  40.2170000   1.3530000  -0.5530000  42.5430000
   0.5720000  -0.6840000  42.0050000   1.3230000   0.3720000  42.7870000
   1.2490000  -0.4510000  42.5050000   7.7060000  -4.2870000  47.2320000
   7.2260000  -5.0950000  47.4090000   8.4360000  -4.3010000  47.8520000
   7.7380000  -4.3920000  47.3340000  18.5490000 -17.2980000  38.2380000
  18.3730000 -16.4570000  37.8170000  17.7400000 -17.7970000  38.1240000
  18.4230000 -17.2540000  38.1710000  21.1180000 -11.3700000  45.6170000
  21.1320000 -11.6830000  46.5220000  21.0690000 -10.4170000  45.6930000
  21.1140000 -11.2880000  45.7430000  10.5110000 -13.4340000  39.5000000
   9.8850000 -14.1580000  39.5230000  10.7290000 -13.2750000  40.4170000
  10.4590000 -13.5060000  39.6190000   3.0840000  -2.0280000  41.0770000
   2.5020000  -1.5300000  41.6500000   3.3130000  -1.4170000  40.3760000
   3.0390000  -1.8860000  41.0600000  16.6830000 -10.4690000  39.5000000
  16.2260000 -10.7100000  40.3070000  17.6090000 -10.6090000  39.6990000
  16.7430000 -10.5180000  39.6300000  14.8080000 -14.7520000  45.0890000
  15.5040000 -15.1380000  44.5550000  14.1980000 -15.4740000  45.2430000
  14.8190000 -14.8940000  45.0400000  10.7090000 -13.3160000  42.1630000
   9.8860000 -13.0330000  42.5590000  11.3870000 -12.9300000  42.7180000
  10.6910000 -13.2310000  42.2850000  12.7280000  -8.2150000  45.7120000
  13.2730000  -7.7140000  46.3180000  12.0340000  -7.6080000  45.4550000
  12.7090000  -8.0740000  45.7570000   0.7110000  -6.6490000  46.5320000
   1.1050000  -6.7190000  45.6620000   1.3230000  -7.1040000  47.1100000
   0.8400000  -6.7160000  46.4940000  15.4320000 -10.9690000  41.9040000
  15.3890000 -10.3500000  42.6350000  15.0660000 -11.7800000  42.2570000
  15.3800000 -10.9930000  42.0430000  10.1820000 -10.1050000  42.3830000
   9.5100000 -10.7860000  42.4130000  10.2610000  -9.8880000  41.4550000
  10.1060000 -10.1640000  42.2680000   6.2320000  -6.6120000  48.3300000
   6.1920000  -7.5670000  48.2930000   5.7770000  -6.3840000  49.1400000
   6.1690000  -6.7050000  48.4300000  -0.1850000 -10.8570000  42.1500000
   0.4800000 -10.2570000  42.4880000  -1.0170000 -10.4230000  42.3390000
  -0.2060000 -10.7250000  42.2180000   2.1480000  -6.4120000  44.3520000
   2.8270000  -6.6920000  44.9650000   2.2460000  -5.4620000  44.3030000
   2.2470000  -6.3260000  44.4250000   7.5620000  -7.6760000  39.4390000
   7.1790000  -7.9850000  38.6170000   7.8010000  -6.7650000  39.2630000
   7.5440000  -7.5990000  39.3120000   1.8180000 -16.2210000  45.1170000
   1.5800000 -17.0400000  44.6830000   1.0570000 -15.6530000  44.9890000
   1.6900000 -16.2530000  45.0440000   6.3890000 -17.4060000  41.1200000
   6.6340000 -18.2810000  41.4220000   6.1740000 -16.9290000  41.9220000
   6.3930000 -17.4570000  41.2610000  11.6210000 -15.6570000  43.6580000
  11.3270000 -14.9420000  43.0940000  11.3500000 -15.3960000  44.5380000
  11.5490000 -15.5320000  43.6980000  15.5740000  -5.1050000  45.3600000
  14.6590000  -5.0950000  45.0770000  15.6960000  -5.9730000  45.7440000
  15.4720000  -5.2150000  45.3730000   3.2270000 -13.1410000  39.1540000
   2.3020000 -13.3840000  39.1920000   3.2230000 -12.2210000  38.8890000
   3.1090000 -13.0540000  39.1250000   5.1960000  -8.7880000  42.4430000
   6.0190000  -8.3020000  42.4050000   5.2470000  -9.2830000  43.2600000
   5.3080000  -8.7890000  42.5430000   1.8870000  -0.9130000  46.5190000
   1.3450000  -0.4900000  47.1870000   2.7860000  -0.7160000  46.7820000
   1.9320000  -0.8330000  46.6380000   7.4910000  -7.1510000  42.4450000
   6.9680000  -6.4480000  42.8320000   7.5030000  -6.9550000  41.5100000
   7.4260000  -7.0360000  42.3750000  14.5340000 -12.2840000  38.6100000
  15.0120000 -12.6370000  37.8610000  15.0360000 -11.5120000  38.8720000
  14.6590000 -12.2300000  38.5470000   1.0740000  -3.0960000  48.7570000
   1.7290000  -2.7350000  48.1600000   0.3960000  -3.4510000  48.1830000
   1.0710000  -3.0950000  48.6070000  16.3860000 -21.2050000  48.0080000
  16.5320000 -20.7990000  48.8630000  15.4410000 -21.1360000  47.8690000
  16.2840000 -21.1440000  48.1010000  12.4740000 -11.0690000  45.7230000
  12.9720000 -11.2760000  44.9320000  12.6580000 -10.1440000  45.8870000
  12.5610000 -10.9770000  45.6420000   7.0990000 -12.3230000  39.4640000
   6.6180000 -13.1400000  39.3320000   7.5330000 -12.1640000  38.6250000
   7.0930000 -12.4070000  39.3390000   1.0630000  -7.2860000  39.9210000
   1.8300000  -7.6090000  40.3970000   0.3210000  -7.5250000  40.4760000
   1.0660000  -7.3580000  40.0530000  17.1620000  -0.2970000  47.7900000
  17.0150000  -1.2400000  47.8720000  17.8160000  -0.0990000  48.4620000
  17.2270000  -0.3930000  47.8870000  18.4950000  -4.0190000  46.5770000
  17.6510000  -3.6060000  46.7600000  18.3630000  -4.9410000  46.7940000
  18.3700000  -4.0840000  46.6280000   9.7950000 -10.4730000  46.3450000
   9.3880000  -9.7130000  45.9300000  10.6570000 -10.5380000  45.9350000
   9.8530000 -10.3840000  46.2390000  14.3320000  -9.2340000  43.8270000
  15.0060000  -8.8220000  44.3680000  13.5220000  -8.7880000  44.0730000
  14.3150000  -9.1240000  43.9280000   2.4860000  -8.7430000  47.3300000
   3.4430000  -8.7590000  47.3120000   2.2410000  -9.5570000  47.7700000
   2.5770000  -8.8490000  47.3850000  11.3280000 -13.2570000  47.6800000
  11.9540000 -12.8070000  47.1130000  11.1860000 -14.1040000  47.2550000
  11.3900000 -13.3080000  47.5530000  11.3520000 -16.5120000  40.4360000
  10.5930000 -16.2640000  39.9070000  11.9070000 -15.7320000  40.4370000
  11.3260000 -16.3800000  40.3680000   3.8870000 -13.2190000  42.1530000
   3.7970000 -13.4900000  41.2390000   2.9890000 -13.0620000  42.4450000
   3.7600000 -13.2330000  42.0730000  13.4740000 -17.3280000  44.9480000
  12.8120000 -16.9220000  44.3880000  14.1690000 -17.5910000  44.3450000
  13.4780000 -17.3090000  44.8000000   5.8330000 -10.3030000  44.5530000
   6.0210000 -11.0550000  43.9900000   6.6890000  -9.9120000  44.7230000
   5.9660000 -10.3490000  44.5030000   4.4800000 -18.4330000  46.7120000
   4.6510000 -17.5120000  46.9100000   5.0460000 -18.9170000  47.3120000
   4.5740000 -18.3770000  46.8140000   8.2830000  -5.0960000  38.8360000
   9.1270000  -5.1340000  39.2870000   8.5060000  -4.8910000  37.9280000
   8.4200000  -5.0750000  38.7780000   5.3340000  -9.3060000  47.1050000
   5.5910000  -9.7240000  46.2820000   5.4180000  -9.9980000  47.7600000
   5.3780000  -9.4480000  47.0830000  12.6460000  -4.8510000  47.5640000
  12.7440000  -4.6040000  46.6430000  11.7920000  -4.5010000  47.8150000
  12.5490000  -4.7750000  47.4780000  10.0360000  -0.4370000  44.9030000
   9.8510000  -1.2640000  44.4570000   9.7240000   0.2360000  44.2970000
   9.9720000  -0.4570000  44.7670000  11.6240000  -1.2020000  37.9920000
  11.7820000  -0.3630000  37.5590000  11.8860000  -1.0550000  38.9010000
  11.6780000  -1.0760000  38.0530000  13.7340000  -2.4250000  48.1020000
  13.1900000  -1.8250000  47.5920000  13.3430000  -3.2860000  47.9570000
  13.6150000  -2.4580000  48.0180000   7.8260000  -0.0570000  47.0760000
   7.7920000  -0.7440000  47.7400000   8.3020000  -0.4520000  46.3450000
   7.8820000  -0.1950000  47.0680000   9.7050000  -9.3290000  39.7630000
  10.4350000  -8.7090000  39.7530000   8.9230000  -8.7780000  39.7320000
   9.6980000  -9.1790000  39.7570000   9.3370000 -11.9480000  48.8800000
   8.8880000 -12.7020000  49.2620000  10.0590000 -12.3280000  48.3800000
   9.3720000 -12.0930000  48.8640000   6.3600000 -15.2110000  42.8630000
   6.2120000 -14.2680000  42.7840000   5.5680000 -15.5430000  43.2870000
   6.2400000 -15.1330000  42.9070000  10.2280000  -0.6010000  48.8400000
  11.0180000  -0.0630000  48.7870000   9.6280000  -0.2090000  48.2070000
  10.2520000  -0.4820000  48.7530000   5.6160000 -14.7220000  39.4570000
   4.6990000 -14.9370000  39.6230000   6.0910000 -15.1100000  40.1920000
   5.5590000 -14.7990000  39.5720000  13.2180000  -1.9710000  43.6930000
  12.8500000  -1.3900000  44.3570000  14.1090000  -1.6480000  43.5580000
  13.2850000  -1.8550000  43.7600000  11.3230000  -9.5340000  48.6780000
  11.0550000  -8.8910000  49.3350000  10.5240000  -9.7160000  48.1820000
  11.1860000  -9.4750000  48.6980000   1.2210000 -12.9950000  43.3400000
   1.6210000 -12.4100000  43.9850000   0.7570000 -12.4100000  42.7420000
   1.2130000 -12.8450000  43.3470000   3.1810000 -18.3160000  39.3850000
   3.1820000 -17.5740000  39.9890000   3.6850000 -18.0120000  38.6320000
   3.2460000 -18.1820000  39.3670000   4.0970000  -6.2800000  39.6690000
   4.1830000  -6.3310000  38.7170000   3.5440000  -5.5120000  39.8180000
   4.0370000  -6.1880000  39.5670000   1.6110000 -11.0590000  48.5280000
   0.8320000 -10.5530000  48.7600000   1.3490000 -11.9720000  48.6520000
   1.4780000 -11.1110000  48.5730000   4.7070000  -6.9020000  45.6350000
   4.6200000  -6.1220000  46.1830000   4.7790000  -7.6260000  46.2570000
   4.7050000  -6.8950000  45.7840000   0.3380000 -15.8180000  40.8390000
   0.2810000 -16.0720000  39.9180000  -0.2100000 -15.0360000  40.9070000
   0.2610000 -15.7500000  40.7300000   5.8910000 -18.2450000  44.2700000
   5.4860000 -18.5760000  45.0730000   5.9980000 -19.0190000  43.7180000
   5.8530000 -18.3860000  44.3030000  16.9760000  -2.7860000  44.0100000
  17.0460000  -3.4150000  44.7270000  17.0420000  -3.3180000  43.2180000
  16.9930000  -2.9340000  44.0000000   6.4340000 -12.1990000  42.1570000
   6.8070000 -12.2640000  41.2780000   5.5290000 -12.4950000  42.0550000
   6.3660000 -12.2460000  42.0320000   6.1330000  -5.0420000  40.5910000
   5.4010000  -5.5310000  40.2140000   6.7930000  -5.0290000  39.8980000
   6.1230000  -5.1030000  40.4550000   8.5790000 -15.3020000  44.5410000
   7.7270000 -15.4400000  44.1300000   8.6290000 -14.3550000  44.6780000
   8.4770000 -15.1980000  44.5070000   9.6240000 -11.6310000  37.7800000
   9.6050000 -10.9810000  38.4820000   9.9790000 -12.4190000  38.1920000
   9.6670000 -11.6480000  37.9220000  11.5860000  -2.7520000  41.6500000
  10.9010000  -2.8240000  42.3150000  12.3840000  -2.5740000  42.1470000
  11.6000000  -2.7390000  41.8000000   9.2970000 -17.1280000  42.6320000
   9.0720000 -16.3430000  43.1320000  10.1960000 -16.9760000  42.3400000
   9.3840000 -17.0080000  42.6590000  14.7240000 -17.4080000  47.5030000
  15.5950000 -17.8010000  47.5590000  14.6250000 -17.1770000  46.5800000
  14.8230000 -17.4290000  47.3920000  14.7490000 -13.5430000  42.7500000
  14.5280000 -13.7930000  43.6480000  15.5650000 -14.0090000  42.5680000
  14.8250000 -13.6350000  42.8430000  12.5950000  -3.7800000  37.8970000
  12.1950000  -2.9120000  37.9470000  12.1190000  -4.3010000  38.5440000
  12.4830000  -3.7350000  37.9860000   8.5520000 -14.9930000  47.9180000
   7.7010000 -15.4240000  47.8300000   8.6510000 -14.8460000  48.8580000
   8.4550000 -15.0290000  48.0270000   5.9740000  -5.4590000  43.7530000
   5.3380000  -5.9140000  44.3050000   5.4860000  -4.7250000  43.3800000
   5.8310000  -5.4230000  43.7770000  17.4400000 -13.5190000  40.5870000
  16.6170000 -14.0060000  40.5380000  17.1880000 -12.6550000  40.9150000
  17.3030000 -13.4710000  40.6220000   2.5270000 -14.8380000  47.5320000
   2.4330000 -15.3050000  46.7020000   3.3500000 -15.1610000  47.8970000
   2.6200000 -14.9390000  47.4730000  16.2320000  -6.3270000  42.8550000
  16.2540000  -6.2110000  43.8050000  16.4050000  -5.4540000  42.5030000
  16.2570000  -6.2000000  42.9320000  15.6070000  -0.3870000  43.1620000
  15.3430000  -0.4220000  42.2430000  16.2290000  -1.1080000  43.2600000
  15.6530000  -0.4840000  43.0570000  12.7810000  -0.3910000  40.6720000
  12.2650000  -1.0760000  41.0980000  12.2980000   0.4160000  40.8460000
  12.6530000  -0.3760000  40.7500000  12.5180000   1.1520000  48.9730000
  13.2930000   0.9960000  48.4340000  12.4870000   2.1030000  49.0800000
  12.6130000   1.2540000  48.9180000   9.0880000  -2.4360000  43.2020000
   8.8500000  -3.2490000  43.6470000   8.2830000  -2.1580000  42.7650000
   8.9550000  -2.5040000  43.2030000   1.8850000  -9.0810000  42.8170000
   2.8410000  -9.0490000  42.8430000   1.6140000  -8.1640000  42.8550000
   1.9730000  -8.9600000  42.8250000   3.2440000 -15.7910000  40.7870000
   3.5520000 -15.7260000  41.6920000   2.3260000 -16.0490000  40.8670000
   3.1660000 -15.8160000  40.9130000  12.5530000 -11.5300000  43.1720000
  13.1730000 -11.0860000  42.5930000  11.7430000 -11.0260000  43.0870000
  12.5290000 -11.4080000  43.0870000  -0.8270000  -5.4780000  39.1320000
  -0.1990000  -6.0010000  39.6320000  -0.3330000  -5.1720000  38.3710000
  -0.6830000  -5.5060000  39.1000000   4.8450000  -3.3940000  42.4030000
   4.1450000  -2.9960000  41.8860000   5.2770000  -3.9970000  41.7970000
   4.8110000  -3.4200000  42.2600000   8.2640000  -9.0670000  44.5440000
   8.7780000  -9.6670000  44.0050000   7.9900000  -8.3770000  43.9400000
   8.2940000  -9.0560000  44.3980000  17.9590000  -1.2080000  40.8330000
  18.5460000  -1.3850000  40.0980000  17.3680000  -0.5280000  40.5100000
  17.9580000  -1.1440000  40.6970000   0.7510000  -1.7120000  38.5910000
   1.3080000  -2.4710000  38.7620000   1.3190000  -0.9580000  38.7460000
   0.8950000  -1.7130000  38.6320000  18.3210000 -14.5020000  44.5890000
  18.9030000 -14.0170000  44.0030000  17.7550000 -13.8320000  44.9730000
  18.3230000 -14.3540000  44.5640000   6.0400000 -15.6830000  46.4550000
   5.8620000 -15.0930000  45.7230000   6.5250000 -16.4100000  46.0650000
   6.0790000 -15.7000000  46.3120000  -0.3550000  -9.0930000  45.0320000
   0.2420000  -8.8370000  44.3280000  -0.0520000  -8.5980000  45.7940000
  -0.2400000  -8.9970000  45.0400000   2.3260000  -5.5860000  48.8370000
   2.5850000  -4.8930000  48.2300000   1.4540000  -5.3270000  49.1370000
   2.2480000  -5.4640000  48.7970000  16.0140000  -7.9960000  45.8180000
  16.8670000  -8.3370000  45.5480000  16.0360000  -8.0250000  46.7750000
  16.1260000  -8.0440000  45.9050000  18.0900000 -17.9700000  45.3270000
  17.4940000 -18.3200000  45.9880000  18.8080000 -18.6020000  45.2910000
  18.1060000 -18.0950000  45.4070000  14.1600000  -7.3250000  41.0330000
  14.5560000  -6.9840000  41.8350000  14.6510000  -6.9060000  40.3270000
  14.2730000  -7.2280000  41.0460000   6.4660000 -16.2980000  32.4540000
   6.6940000 -16.3260000  33.3830000   5.8370000 -17.0100000  32.3410000
   6.4150000 -16.3930000  32.5590000   4.3820000 -18.0120000  31.9600000
   3.8220000 -17.5640000  32.5940000   4.2360000 -18.9430000  32.1270000
   4.2920000 -18.0740000  32.0620000   5.2010000  -9.7710000  21.2080000
   5.0470000  -9.3140000  22.0350000   5.9130000 -10.3810000  21.4000000
   5.2720000  -9.7910000  21.3380000   8.5960000 -14.5620000  31.8130000
   7.9930000 -15.2030000  32.1880000   9.3850000 -14.6310000  32.3510000
   8.6200000 -14.6520000  31.9300000   9.1340000 -18.1250000  38.0910000
  10.0260000 -18.3540000  37.8270000   8.6120000 -18.2460000  37.2980000
   9.1820000 -18.1690000  37.9570000  11.0190000 -14.7360000  33.0820000
  11.1970000 -15.6180000  33.4070000  11.3380000 -14.1560000  33.7730000
  11.0830000 -14.7750000  33.2120000  16.4590000 -16.1080000  24.5800000
  16.5270000 -17.0550000  24.4560000  17.3280000 -15.8430000  24.8810000
  16.5790000 -16.1950000  24.6030000  17.5780000 -11.8170000  26.4210000
  16.7990000 -11.7070000  26.9660000  17.9220000 -10.9310000  26.3120000
  17.5220000 -11.6900000  26.4770000   8.6740000 -15.6890000  20.5690000
   8.4080000 -16.1520000  21.3640000   8.6900000 -16.3660000  19.8930000
   8.6420000 -15.8350000  20.5850000   8.9090000  -8.5010000  33.8530000
   8.7810000  -9.3660000  34.2420000   9.3520000  -8.6760000  33.0220000
   8.9490000  -8.6340000  33.7960000  11.7850000  -7.5490000  20.8720000
  12.5550000  -7.5280000  21.4390000  12.1040000  -7.9160000  20.0480000
  11.9240000  -7.5930000  20.8390000  17.5210000  -7.9120000  22.6020000
  17.1550000  -7.2710000  23.2120000  16.7560000  -8.3340000  22.2100000
  17.3760000  -7.8840000  22.6300000   0.0330000 -14.1710000  32.4100000
   0.3100000 -13.6020000  33.1280000  -0.5690000 -14.7940000  32.8170000
  -0.0080000 -14.1780000  32.5540000   0.9060000  -7.8340000  35.0030000
  -0.0150000  -8.0540000  34.8630000   0.9860000  -7.7270000  35.9500000
   0.7980000  -7.8490000  35.1060000  15.8460000 -15.8820000  21.7070000
  15.9780000 -16.0260000  22.6440000  14.9780000 -15.4830000  21.6470000
  15.7520000 -15.8500000  21.8200000   4.6080000 -13.5650000  25.9800000
   4.2010000 -13.5660000  25.1130000   4.1220000 -12.9020000  26.4710000
   4.4940000 -13.4800000  25.9320000   2.7270000 -17.1690000  33.9980000
   2.9340000 -16.2710000  34.2550000   2.3710000 -17.5700000  34.7910000
   2.7080000 -17.1060000  34.1320000   4.0350000 -16.3780000  24.6980000
   3.2770000 -16.3910000  25.2830000   4.5670000 -17.1220000  24.9790000
   4.0060000 -16.4750000  24.8090000  11.0750000 -12.6800000  34.9970000
  11.6610000 -12.3670000  35.6860000  10.3490000 -12.0550000  34.9970000
  11.0570000 -12.5600000  35.0850000   8.6950000 -12.1790000  24.5290000
   7.8700000 -12.1970000  24.0440000   8.4440000 -12.3650000  25.4340000
   8.5570000 -12.2050000  24.5830000   0.5960000 -14.1670000  38.0510000
   0.3980000 -14.0860000  37.1190000  -0.1980000 -13.8640000  38.4920000
   0.4690000 -14.1180000  37.9880000   3.5200000 -10.5570000  19.1990000
   2.9170000  -9.8200000  19.1030000   4.1490000 -10.2670000  19.8600000
   3.5230000 -10.4260000  19.2710000   6.6700000 -11.6040000  29.4740000
   7.5510000 -11.3120000  29.7060000   6.7560000 -11.9380000  28.5810000
   6.7940000 -11.6090000  29.3890000   0.5640000  -5.1410000  36.8080000
  -0.1980000  -4.5730000  36.6910000   0.7690000  -5.4510000  35.9260000
   0.4920000  -5.1080000  36.6800000   2.6350000  -3.8460000  38.1450000
   3.1180000  -3.2850000  37.5380000   2.1920000  -4.4820000  37.5840000
   2.6400000  -3.8550000  37.9960000   6.2610000  -2.1100000  36.9430000
   6.8350000  -2.1970000  37.7040000   6.2190000  -1.1680000  36.7820000
   6.3290000  -2.0010000  37.0190000  10.9670000 -15.7850000  27.6580000
  10.0150000 -15.8480000  27.7290000  11.2950000 -16.5130000  28.1860000
  10.8870000 -15.8860000  27.7350000  16.0960000  -7.7770000  29.7800000
  16.5360000  -7.2700000  30.4630000  15.4240000  -8.2740000  30.2460000
  16.0670000  -7.7760000  29.9270000  17.3110000  -6.0090000  32.0080000
  16.5970000  -5.4040000  31.8090000  18.0270000  -5.4460000  32.3050000
  17.3120000  -5.8600000  32.0210000   6.6160000  -8.2560000  36.8440000
   6.4590000  -9.2000000  36.8080000   6.5270000  -7.9640000  35.9370000
   6.5840000  -8.3400000  36.7230000  13.4460000 -14.4600000  21.5220000
  13.5500000 -14.1160000  22.4090000  13.3160000 -13.6840000  20.9770000
  13.4430000 -14.3170000  21.5660000  16.0880000 -13.6120000  28.8490000
  17.0000000 -13.6010000  29.1420000  16.0880000 -14.1970000  28.0910000
  16.2050000 -13.6860000  28.7900000  13.9330000  -9.2750000  30.7000000
  13.0580000  -9.5320000  30.4100000  14.2850000 -10.0580000  31.1240000
  13.8660000  -9.4080000  30.7170000   5.6750000 -17.2860000  19.5090000
   6.0170000 -17.2770000  20.4030000   5.1900000 -16.4640000  19.4310000
   5.6570000 -17.1790000  19.6130000   0.8440000 -17.3700000  29.4130000
   1.6780000 -16.9160000  29.2890000   0.2560000 -16.9710000  28.7730000
   0.8760000 -17.2610000  29.3160000   1.9430000 -18.2370000  36.4250000
   1.1100000 -18.6640000  36.6260000   1.9100000 -17.4100000  36.9050000
   1.8320000 -18.1860000  36.5120000   8.2780000 -12.7750000  27.1630000
   8.3640000 -13.5590000  27.7060000   8.7180000 -12.0880000  27.6630000
   8.3450000 -12.7870000  27.2960000  16.9400000 -15.1570000  36.5030000
  16.0410000 -15.4850000  36.4980000  17.2650000 -15.3340000  35.6210000
  16.8660000 -15.2220000  36.3900000  16.9560000  -4.0350000  22.4990000
  17.0770000  -3.1600000  22.1310000  17.1650000  -4.6290000  21.7780000
  16.9980000  -3.9990000  22.3590000  15.3740000 -18.6360000  21.3770000
  15.5020000 -17.7210000  21.1250000  14.4250000 -18.7310000  21.4620000
  15.2690000 -18.5310000  21.3560000  11.4040000  -4.7510000  35.6330000
  11.9860000  -4.9150000  36.3740000  10.8110000  -4.0650000  35.9410000
  11.4020000  -4.6840000  35.7670000  18.5490000 -17.2980000  19.3780000
  18.3730000 -16.4570000  18.9570000  17.7400000 -17.7970000  19.2640000
  18.4230000 -17.2540000  19.3100000  21.1180000 -11.3700000  26.7560000
  21.1320000 -11.6830000  27.6610000  21.0690000 -10.4170000  26.8330000
  21.1140000 -11.2880000  26.8820000  10.5110000 -13.4340000  20.6390000
   9.8850000 -14.1580000  20.6630000  10.7290000 -13.2750000  21.5570000
  10.4590000 -13.5060000  20.7590000   7.2490000 -11.7860000  32.7600000
   6.4040000 -12.1060000  33.0760000   7.7220000 -12.5770000  32.5000000
   7.2010000 -11.9280000  32.7670000   4.1760000  -6.6000000  37.0930000
   4.9870000  -7.0880000  36.9510000   3.9070000  -6.3230000  36.2170000
   4.2450000  -6.6270000  36.9620000  16.9770000 -15.9190000  33.9340000
  16.1110000 -16.0830000  33.5630000  17.5590000 -16.5110000  33.4570000
  16.9410000 -16.0160000  33.8250000  16.6830000 -10.4690000  20.6400000
  16.2260000 -10.7100000  21.4460000  17.6090000 -10.6090000  20.8390000
  16.7430000 -10.5180000  20.7690000   6.4380000  -7.5600000  34.1210000
   7.3180000  -7.9330000  34.0690000   5.9000000  -8.1410000  33.5840000
   6.4820000  -7.6820000  34.0460000  17.5640000  -2.0820000  34.3570000
  17.7620000  -2.4770000  35.2070000  16.8930000  -1.4270000  34.5480000
  17.5030000  -2.0490000  34.4900000  14.8080000 -14.7520000  26.2280000
  15.5040000 -15.1380000  25.6950000  14.1980000 -15.4740000  26.3830000
  14.8190000 -14.8940000  26.1790000  12.8820000  -9.3030000  33.7700000
  12.3250000  -9.6970000  33.0980000  12.3060000  -8.6930000  34.2300000
  12.7370000  -9.2750000  33.7430000  16.7960000 -10.0420000  36.9640000
  15.9730000  -9.7020000  36.6150000  16.6520000 -10.0980000  37.9090000
  16.6730000 -10.0060000  37.0410000  10.7090000 -13.3160000  23.3030000
   9.8860000 -13.0330000  23.6990000  11.3870000 -12.9300000  23.8580000
  10.6910000 -13.2310000  23.4250000   0.7110000  -6.6490000  27.6720000
   1.1050000  -6.7190000  26.8020000   1.3230000  -7.1040000  28.2490000
   0.8400000  -6.7160000  27.6340000  15.4320000 -10.9690000  23.0440000
  15.3890000 -10.3500000  23.7740000  15.0660000 -11.7800000  23.3960000
  15.3800000 -10.9930000  23.1830000  10.1820000 -10.1050000  23.5230000
   9.5100000 -10.7860000  23.5530000  10.2610000  -9.8880000  22.5940000
  10.1060000 -10.1640000  23.4080000   3.8690000 -15.2520000  37.4860000
   3.7160000 -14.9720000  36.5840000   3.6320000 -14.4920000  38.0170000
   3.8190000 -15.1190000  37.4390000  11.3680000  -1.1260000  32.6410000
  10.8190000  -1.1950000  31.8610000  11.7320000  -2.0030000  32.7570000
  11.3450000  -1.2470000  32.5560000   5.8020000 -11.1310000  36.5920000
   5.6870000 -11.4150000  35.6850000   4.9110000 -11.0280000  36.9250000
   5.6730000 -11.1540000  36.5180000   4.8470000 -12.8040000  31.4380000
   4.2570000 -13.5430000  31.2860000   5.4590000 -12.8320000  30.7030000
   4.8500000 -12.9020000  31.3240000  14.1970000  -9.9590000  36.1520000
  13.5060000 -10.5990000  36.3200000  13.9890000  -9.6030000  35.2890000
  14.0820000  -9.9960000  36.0630000  -0.1850000 -10.8570000  23.2890000
   0.4800000 -10.2570000  23.6270000  -1.0170000 -10.4230000  23.4780000
  -0.2060000 -10.7250000  23.3570000   2.1480000  -6.4120000  25.4910000
   2.8270000  -6.6920000  26.1050000   2.2460000  -5.4620000  25.4420000
   2.2470000  -6.3260000  25.5640000   1.8180000 -16.2210000  26.2560000
   1.5800000 -17.0400000  25.8220000   1.0570000 -15.6530000  26.1300000
   1.6900000 -16.2530000  26.1840000   6.3890000 -17.4060000  22.2600000
   6.6340000 -18.2810000  22.5610000   6.1740000 -16.9290000  23.0610000
   6.3930000 -17.4570000  22.4010000  11.6210000 -15.6570000  24.7980000
  11.3270000 -14.9420000  24.2340000  11.3500000 -15.3960000  25.6780000
  11.5490000 -15.5320000  24.8380000  15.5740000  -5.1050000  26.4990000
  14.6590000  -5.0950000  26.2160000  15.6960000  -5.9730000  26.8840000
  15.4720000  -5.2150000  26.5120000   3.2270000 -13.1410000  20.2940000
   2.3020000 -13.3840000  20.3320000   3.2230000 -12.2210000  20.0290000
   3.1090000 -13.0540000  20.2650000  14.5340000 -12.2840000  19.7490000
  15.0120000 -12.6370000  19.0000000  15.0360000 -11.5120000  20.0120000
  14.6590000 -12.2300000  19.6870000   3.4280000  -6.8480000  34.5790000
   3.3900000  -6.5310000  33.6780000   2.5560000  -7.2070000  34.7440000
   3.3110000  -6.8540000  34.4860000   7.3360000  -5.1080000  33.1540000
   6.5530000  -4.7020000  32.7850000   7.0480000  -5.9790000  33.4280000
   7.1990000  -5.1680000  33.1420000  16.3860000 -21.2050000  29.1480000
  16.5320000 -20.7990000  30.0030000  15.4410000 -21.1360000  29.0090000
  16.2840000 -21.1440000  29.2400000   1.9780000  -8.2170000  37.6020000
   2.7810000  -7.7070000  37.4920000   1.5280000  -7.7990000  38.3370000
   2.0230000  -8.0980000  37.6820000  12.4740000 -11.0690000  26.8620000
  12.9720000 -11.2760000  26.0710000  12.6580000 -10.1440000  27.0260000
  12.5610000 -10.9770000  26.7820000   7.0990000 -12.3230000  20.6030000
   6.6180000 -13.1400000  20.4720000   7.5330000 -12.1640000  19.7650000
   7.0930000 -12.4070000  20.4790000   1.0630000  -7.2860000  21.0610000
   1.8300000  -7.6090000  21.5360000   0.3210000  -7.5250000  21.6160000
   1.0660000  -7.3580000  21.1930000  17.1620000  -0.2970000  28.9300000
  17.0150000  -1.2400000  29.0110000  17.8160000  -0.0990000  29.6010000
  17.2270000  -0.3930000  29.0260000  18.4950000  -4.0190000  27.7160000
  17.6510000  -3.6060000  27.9000000  18.3630000  -4.9410000  27.9340000
  18.3700000  -4.0840000  27.7670000   0.4010000 -13.5300000  29.7570000
   1.1990000 -13.8800000  29.3620000   0.3810000 -13.9100000  30.6350000
   0.5000000 -13.6240000  29.8190000   9.7950000 -10.4730000  27.4850000
   9.3880000  -9.7130000  27.0690000  10.6570000 -10.5380000  27.0750000
   9.8530000 -10.3840000  27.3800000  14.3320000  -9.2340000  24.9670000
  15.0060000  -8.8220000  25.5070000  13.5220000  -8.7880000  25.2130000
  14.3150000  -9.1240000  25.0670000   2.4860000  -8.7430000  28.4700000
   3.4430000  -8.7590000  28.4510000   2.2410000  -9.5570000  28.9100000
   2.5770000  -8.8490000  28.5240000  12.7890000 -14.7330000  31.0090000
  12.3350000 -14.2910000  30.2910000  12.2470000 -14.5580000  31.7780000
  12.6620000 -14.6540000  31.0150000  17.9540000  -9.8050000  29.9530000
  17.5650000 -10.2790000  30.6890000  17.4190000  -9.0160000  29.8670000
  17.8360000  -9.7650000  30.0360000  11.3280000 -13.2570000  28.8190000
  11.9540000 -12.8070000  28.2520000  11.1860000 -14.1040000  28.3950000
  11.3900000 -13.3080000  28.6920000   9.8630000  -5.3800000  32.3180000
  10.2560000  -4.5590000  32.6140000   8.9500000  -5.3250000  32.6000000
   9.7970000  -5.2680000  32.3920000  11.3520000 -16.5120000  21.5750000
  10.5930000 -16.2640000  21.0470000  11.9070000 -15.7320000  21.5760000
  11.3260000 -16.3800000  21.5080000   3.8870000 -13.2190000  23.2920000
   3.7970000 -13.4900000  22.3790000   2.9890000 -13.0620000  23.5850000
   3.7600000 -13.2330000  23.2130000  13.4740000 -17.3280000  26.0880000
  12.8120000 -16.9220000  25.5280000  14.1690000 -17.5910000  25.4850000
  13.4780000 -17.3090000  25.9390000  15.0870000 -12.0960000  31.4670000
  14.8220000 -12.7480000  32.1170000  15.3060000 -12.6090000  30.6890000
  15.0810000 -12.2450000  31.4510000   5.8330000 -10.3030000  25.6920000
   6.0210000 -11.0550000  25.1300000   6.6890000  -9.9120000  25.8620000
   5.9660000 -10.3490000  25.6420000   7.4890000 -15.4430000  34.9320000
   8.4110000 -15.3670000  35.1760000   7.0370000 -14.8260000  35.5070000
   7.5490000 -15.3550000  35.0360000   4.4800000 -18.4330000  27.8510000
   4.6510000 -17.5120000  28.0500000   5.0460000 -18.9170000  28.4520000
   4.5740000 -18.3770000  27.9530000   5.3340000  -9.3060000  28.2440000
   5.5910000  -9.7240000  27.4220000   5.4180000  -9.9980000  28.9000000
   5.3780000  -9.4480000  28.2230000  16.1400000 -18.5670000  37.6670000
  15.5990000 -19.0820000  38.2660000  15.6760000 -17.7340000  37.5800000
  16.0120000 -18.5260000  37.7330000  11.6240000  -1.2020000  19.1320000
  11.7820000  -0.3630000  18.6990000  11.8860000  -1.0550000  20.0410000
  11.6780000  -1.0760000  19.1930000  17.5090000 -11.0160000  32.8650000
  16.6130000 -11.3410000  32.7780000  17.4090000 -10.1210000  33.1900000
  17.3810000 -10.9430000  32.8960000   9.7050000  -9.3290000  20.9030000
  10.4350000  -8.7090000  20.8920000   8.9230000  -8.7780000  20.8720000
   9.6980000  -9.1790000  20.8970000   9.3370000 -11.9480000  30.0190000
   8.8880000 -12.7020000  30.4010000  10.0590000 -12.3280000  29.5190000
   9.3720000 -12.0930000  30.0050000  10.8720000  -7.8240000  31.7310000
  10.5960000  -7.0000000  32.1330000  11.8230000  -7.8370000  31.8400000
  10.9590000  -7.7200000  31.7960000   6.3600000 -15.2110000  24.0020000
   6.2120000 -14.2680000  23.9240000   5.5680000 -15.5430000  24.4260000
   6.2400000 -15.1330000  24.0460000  10.2280000  -0.6010000  29.9800000
  11.0180000  -0.0630000  29.9260000   9.6280000  -0.2090000  29.3460000
  10.2520000  -0.4820000  29.8920000  10.0110000 -14.8670000  36.4210000
   9.5450000 -14.2690000  37.0050000  10.6060000 -14.3030000  35.9260000
  10.0270000 -14.7190000  36.4320000   5.6160000 -14.7220000  20.5970000
   4.6990000 -14.9370000  20.7630000   6.0910000 -15.1100000  21.3320000
   5.5590000 -14.7990000  20.7120000   2.2580000  -9.9760000  33.8680000
   1.5790000  -9.3370000  34.0880000   1.8490000 -10.8250000  34.0320000
   2.1180000 -10.0030000  33.9170000   0.4060000 -17.0670000  32.4500000
   1.2680000 -17.1060000  32.8640000   0.5920000 -16.9170000  31.5230000
   0.5400000 -17.0530000  32.3840000  11.3230000  -9.5340000  29.8170000
  11.0550000  -8.8910000  30.4740000  10.5240000  -9.7160000  29.3210000
  11.1860000  -9.4750000  29.8370000  -0.1350000 -11.8960000  36.4370000
  -0.7350000 -11.1630000  36.5780000   0.4120000 -11.9130000  37.2230000
  -0.1420000 -11.8040000  36.5570000   1.2210000 -12.9950000  24.4800000
   1.6210000 -12.4100000  25.1240000   0.7570000 -12.4100000  23.8810000
   1.2130000 -12.8450000  24.4860000  11.3000000 -11.2000000  32.3800000
  11.1370000 -10.8910000  31.4880000  10.4390000 -11.4640000  32.7020000
  11.1690000 -11.1940000  32.3070000  11.5220000 -16.9790000  36.5170000
  11.5190000 -17.2690000  35.6050000  10.8500000 -16.2980000  36.5540000
  11.4350000 -16.9290000  36.4050000   3.1810000 -18.3160000  20.5250000
   3.1820000 -17.5740000  21.1290000   3.6850000 -18.0120000  19.7710000
   3.2460000 -18.1820000  20.5060000   4.0970000  -6.2800000  20.8090000
   4.1830000  -6.3310000  19.8570000   3.5440000  -5.5120000  20.9580000
   4.0370000  -6.1880000  20.7060000  11.2320000  -7.5370000  34.9160000
  10.4140000  -7.6930000  34.4440000  11.2800000  -6.5850000  35.0050000
  11.1340000  -7.4350000  34.8670000  15.5820000 -12.8410000  36.1460000
  16.2950000 -13.4730000  36.2420000  16.0220000 -12.0040000  36.0000000
  15.7290000 -12.8150000  36.1390000   1.6110000 -11.0590000  29.6680000
   0.8320000 -10.5530000  29.8990000   1.3490000 -11.9720000  29.7910000
   1.4780000 -11.1110000  29.7130000  17.0550000  -1.5640000  31.7150000
  17.3370000  -1.6600000  32.6250000  16.2740000  -1.0130000  31.7640000
  16.9910000  -1.5060000  31.8380000   4.7070000  -6.9020000  26.7740000
   4.6200000  -6.1220000  27.3230000   4.7790000  -7.6260000  27.3970000
   4.7050000  -6.8950000  26.9240000   0.3380000 -15.8180000  21.9790000
   0.2810000 -16.0720000  21.0580000  -0.2100000 -15.0360000  22.0470000
   0.2610000 -15.7500000  21.8700000   4.8090000 -11.7610000  33.9580000
   4.7180000 -11.8810000  33.0130000   4.0850000 -11.1830000  34.1960000
   4.7050000 -11.7020000  33.8670000   5.8910000 -18.2450000  25.4100000
   5.4860000 -18.5760000  26.2120000   5.9980000 -19.0190000  24.8580000
   5.8530000 -18.3860000  25.4420000  16.9760000  -2.7860000  25.1500000
  17.0460000  -3.4150000  25.8670000  17.0420000  -3.3180000  24.3570000
  16.9930000  -2.9340000  25.1400000   6.4340000 -12.1990000  23.2960000
   6.8070000 -12.2640000  22.4170000   5.5290000 -12.4950000  23.1950000
   6.3660000 -12.2460000  23.1710000   8.5790000 -15.3020000  25.6810000
   7.7270000 -15.4400000  25.2690000   8.6290000 -14.3550000  25.8170000
   8.4770000 -15.1980000  25.6460000   1.0790000  -1.6970000  32.3010000
   0.7860000  -1.9700000  31.4310000   0.7710000  -0.7950000  32.3850000
   1.0020000  -1.6170000  32.2000000   3.4510000 -14.6340000  34.8720000
   4.2420000 -14.6010000  34.3350000   3.0910000 -13.7480000  34.8240000
   3.5060000 -14.5170000  34.7970000   9.6240000 -11.6310000  18.9200000
   9.6050000 -10.9810000  19.6220000   9.9790000 -12.4190000  19.3320000
   9.6670000 -11.6480000  19.0620000  14.6070000 -16.3810000  36.3410000
  14.6680000 -16.7280000  35.4510000  13.6670000 -16.3330000  36.5160000
  14.4940000 -16.4190000  36.2490000   4.9940000  -4.3330000  31.6990000
   4.4240000  -3.6460000  32.0460000   4.5420000  -5.1490000  31.9130000
   4.8630000  -4.3490000  31.7710000   9.2970000 -17.1280000  23.7720000
   9.0720000 -16.3430000  24.2710000  10.1960000 -16.9760000  23.4800000
   9.3840000 -17.0080000  23.7990000  14.7240000 -17.4080000  28.6420000
  15.5950000 -17.8010000  28.6990000  14.6250000 -17.1770000  27.7190000
  14.8230000 -17.4290000  28.5310000  11.6320000 -17.1410000  33.7760000
  11.3720000 -17.9170000  33.2790000  12.5880000 -17.1360000  33.7280000
  11.7210000 -17.2400000  33.7070000  14.7490000 -13.5430000  23.8900000
  14.5280000 -13.7930000  24.7880000  15.5650000 -14.0090000  23.7070000
  14.8250000 -13.6350000  23.9820000  12.5950000  -3.7800000  19.0370000
  12.1950000  -2.9120000  19.0870000  12.1190000  -4.3010000  19.6840000
  12.4830000  -3.7350000  19.1260000   8.5520000 -14.9930000  29.0570000
   7.7010000 -15.4240000  28.9700000   8.6510000 -14.8460000  29.9980000
   8.4550000 -15.0290000  29.1660000   7.1830000 -17.9720000  36.2080000
   6.6300000 -17.6610000  36.9240000   7.2440000 -17.2260000  35.6110000
   7.1200000 -17.8370000  36.2230000  11.8520000  -3.7880000  33.0980000
  11.6490000  -4.0980000  33.9800000  12.3660000  -4.4960000  32.7080000
  11.8920000  -3.9190000  33.1610000  17.4400000 -13.5190000  21.7260000
  16.6170000 -14.0060000  21.6780000  17.1880000 -12.6550000  22.0540000
  17.3030000 -13.4710000  21.7620000  14.4970000  -6.1860000  35.7450000
  13.8570000  -6.7190000  36.2170000  14.4590000  -6.5090000  34.8440000
  14.4100000  -6.2960000  35.6900000   8.2640000  -3.8180000  35.8800000
   7.8770000  -4.1830000  35.0840000   7.6160000  -3.1890000  36.1950000
   8.1310000  -3.7850000  35.8190000   0.6240000  -4.4640000  33.2490000
   0.2420000  -3.6210000  33.4930000   1.4480000  -4.2380000  32.8180000
   0.6800000  -4.3270000  33.2250000   2.5270000 -14.8380000  28.6710000
   2.4330000 -15.3050000  27.8410000   3.3500000 -15.1610000  29.0360000
   2.6200000 -14.9390000  28.6120000  17.1640000  -8.3490000  33.5620000
  16.2730000  -8.1330000  33.8400000  17.4410000  -7.5960000  33.0410000
  17.0850000  -8.2250000  33.5320000  16.2320000  -6.3270000  23.9940000
  16.2540000  -6.2110000  24.9440000  16.4050000  -5.4540000  23.6430000
  16.2570000  -6.2000000  24.0710000   4.6900000 -15.5800000  29.9270000
   5.1420000 -16.1590000  30.5410000   5.2530000 -15.5650000  29.1540000
   4.8200000 -15.6520000  29.9070000   1.2720000 -12.4800000  34.1960000
   0.7060000 -12.1190000  33.5140000   0.7760000 -12.3640000  35.0070000
   1.1360000 -12.4190000  34.2120000  12.5180000   1.1520000  30.1130000
  13.2930000   0.9960000  29.5740000  12.4870000   2.1030000  30.2190000
  12.6130000   1.2540000  30.0580000  14.2810000  -3.0160000  35.6490000
  14.5510000  -3.9200000  35.8090000  13.3290000  -3.0290000  35.7500000
  14.1940000  -3.1330000  35.6830000  14.5910000  -7.3100000  33.3460000
  13.9810000  -8.0460000  33.4020000  14.1590000  -6.6860000  32.7630000
  14.4580000  -7.3250000  33.2790000   6.7250000 -13.6220000  36.8990000
   5.9600000 -14.0190000  37.3170000   6.4710000 -12.7110000  36.7510000
   6.5940000 -13.5560000  36.9340000   3.2440000 -15.7910000  21.9270000
   3.5520000 -15.7260000  22.8310000   2.3260000 -16.0490000  22.0060000
   3.1660000 -15.8160000  22.0530000  12.5530000 -11.5300000  24.3110000
  13.1730000 -11.0860000  23.7320000  11.7430000 -11.0260000  24.2260000
  12.5290000 -11.4080000  24.2260000  -0.8270000  -5.4780000  20.2720000
  -0.1990000  -6.0010000  20.7710000  -0.3330000  -5.1720000  19.5110000
  -0.6830000  -5.5060000  20.2390000   8.2640000  -9.0670000  25.6840000
   8.7780000  -9.6670000  25.1440000   7.9900000  -8.3770000  25.0800000
   8.2940000  -9.0560000  25.5380000  15.2920000  -0.5000000  34.9750000
  15.7010000  -0.3280000  35.8230000  15.0230000  -1.4170000  35.0200000
  15.3100000  -0.5950000  35.0890000  14.3060000 -15.8380000  33.2430000
  14.0190000 -15.0120000  33.6350000  14.0830000 -15.7540000  32.3160000
  14.2400000 -15.7210000  33.1750000  17.9590000  -1.2080000  21.9730000
  18.5460000  -1.3850000  21.2380000  17.3680000  -0.5280000  21.6490000
  17.9580000  -1.1440000  21.8370000  17.7990000  -2.8530000  36.9680000
  17.0270000  -2.8220000  37.5320000  18.4160000  -2.2430000  37.3740000
  17.7790000  -2.7710000  37.0930000  18.3210000 -14.5020000  25.7290000
  18.9030000 -14.0170000  25.1430000  17.7550000 -13.8320000  26.1120000
  18.3230000 -14.3540000  25.7030000  12.7000000  -7.7260000  37.0370000
  11.8890000  -7.6880000  36.5300000  13.0640000  -8.5890000  36.8420000
  12.6430000  -7.8310000  36.9470000   6.0400000 -15.6830000  27.5950000
   5.8620000 -15.0930000  26.8630000   6.5250000 -16.4100000  27.2050000
   6.0790000 -15.7000000  27.4520000  -0.3550000  -9.0930000  26.1720000
   0.2420000  -8.8370000  25.4680000  -0.0520000  -8.5980000  26.9340000
  -0.2400000  -8.9970000  26.1790000  16.0140000  -7.9960000  26.9580000
  16.8670000  -8.3370000  26.6880000  16.0360000  -8.0250000  27.9140000
  16.1260000  -8.0440000  27.0450000   8.9440000 -11.0850000  34.8630000
   8.1900000 -11.4150000  34.3740000   8.7430000 -11.2830000  35.7770000
   8.8220000 -11.1530000  34.9170000  12.4940000 -11.7620000  36.9320000
  11.7100000 -11.8010000  37.4800000  13.1310000 -12.3130000  37.3860000
  12.4750000 -11.8370000  37.0600000  18.0900000 -17.9700000  26.4660000
  17.4940000 -18.3200000  27.1280000  18.8080000 -18.6020000  26.4310000
  18.1060000 -18.0950000  26.5460000  14.1600000  -7.3250000  22.1730000
  14.5560000  -6.9840000  22.9750000  14.6510000  -6.9060000  21.4660000
  14.2730000  -7.2280000  22.1850000  13.8890000 -13.2390000  34.1350000
  14.5820000 -13.0450000  34.7670000  13.2530000 -12.5330000  34.2530000
  13.8960000 -13.1240000  34.2310000  14.3540000  -0.9690000  31.6100000
  13.8810000  -0.1360000  31.6030000  13.8230000  -1.5500000  31.0660000
  14.2250000  -0.9370000  31.5400000   6.4660000 -16.2980000  13.5940000
   6.6940000 -16.3260000  14.5230000   5.8370000 -17.0100000  13.4810000
   6.4150000 -16.3930000  13.6990000   4.3820000 -18.0120000  13.1000000
   3.8220000 -17.5640000  13.7340000   4.2360000 -18.9430000  13.2670000
   4.2920000 -18.0740000  13.2020000   5.2010000  -9.7710000   2.3480000
   5.0470000  -9.3140000   3.1750000   5.9130000 -10.3810000   2.5400000
   5.2720000  -9.7910000   2.4780000   8.5960000 -14.5620000  12.9530000
   7.9930000 -15.2030000  13.3280000   9.3850000 -14.6310000  13.4910000
   8.6200000 -14.6520000  13.0700000   9.1340000 -18.1250000  19.2310000
  10.0260000 -18.3540000  18.9670000   8.6120000 -18.2460000  18.4380000
   9.1820000 -18.1690000  19.0960000  15.3620000  -3.6120000   0.5340000
  14.5000000  -3.2840000   0.2780000  15.2660000  -4.5640000   0.5330000
  15.2390000  -3.6920000   0.5010000  11.0190000 -14.7360000  14.2210000
  11.1970000 -15.6180000  14.5470000  11.3380000 -14.1560000  14.9130000
  11.0830000 -14.7750000  14.3520000  16.4590000 -16.1080000   5.7200000
  16.5270000 -17.0550000   5.5960000  17.3280000 -15.8430000   6.0210000
  16.5790000 -16.1950000   5.7430000  17.5780000 -11.8170000   7.5610000
  16.7990000 -11.7070000   8.1060000  17.9220000 -10.9310000   7.4520000
  17.5220000 -11.6900000   7.6170000   8.6740000 -15.6890000   1.7090000
   8.4080000 -16.1520000   2.5040000   8.6900000 -16.3660000   1.0330000
   8.6420000 -15.8350000   1.7250000   8.9090000  -8.5010000  14.9930000
   8.7810000  -9.3660000  15.3820000   9.3520000  -8.6760000  14.1620000
   8.9490000  -8.6340000  14.9360000  17.5210000  -7.9120000   3.7420000
  17.1550000  -7.2710000   4.3520000  16.7560000  -8.3340000   3.3500000
  17.3760000  -7.8840000   3.7700000   0.0330000 -14.1710000  13.5500000
   0.3100000 -13.6020000  14.2680000  -0.5690000 -14.7940000  13.9570000
  -0.0080000 -14.1780000  13.6940000  15.5030000  -6.3120000   0.7590000
  15.5450000  -6.4460000  -0.1880000  16.3890000  -6.0450000   1.0020000
  15.6220000  -6.2950000   0.6690000  15.8460000 -15.8820000   2.8470000
  15.9780000 -16.0260000   3.7840000  14.9780000 -15.4830000   2.7870000
  15.7520000 -15.8500000   2.9600000   4.6080000 -13.5650000   7.1200000
   4.2010000 -13.5660000   6.2530000   4.1220000 -12.9020000   7.6110000
   4.4940000 -13.4800000   7.0720000   2.7270000 -17.1690000  15.1380000
   2.9340000 -16.2710000  15.3950000   2.3710000 -17.5700000  15.9310000
   2.7080000 -17.1060000  15.2720000   4.0350000 -16.3780000   5.8380000
   3.2770000 -16.3910000   6.4230000   4.5670000 -17.1220000   6.1190000
   4.0060000 -16.4750000   5.9490000  11.0750000 -12.6800000  16.1370000
  11.6610000 -12.3670000  16.8260000  10.3490000 -12.0550000  16.1370000
  11.0570000 -12.5600000  16.2250000   8.6950000 -12.1790000   5.6690000
   7.8700000 -12.1970000   5.1840000   8.4440000 -12.3650000   6.5740000
   8.5570000 -12.2050000   5.7230000   0.5960000 -14.1670000  19.1910000
   0.3980000 -14.0860000  18.2600000  -0.1980000 -13.8640000  19.6320000
   0.4690000 -14.1180000  19.1280000   6.6700000 -11.6040000  10.6140000
   7.5510000 -11.3120000  10.8460000   6.7560000 -11.9380000   9.7210000
   6.7940000 -11.6090000  10.5290000  10.9670000 -15.7850000   8.7980000
  10.0150000 -15.8480000   8.8690000  11.2950000 -16.5130000   9.3260000
  10.8870000 -15.8860000   8.8750000  17.3110000  -6.0090000  13.1480000
  16.5970000  -5.4040000  12.9490000  18.0270000  -5.4460000  13.4450000
  17.3120000  -5.8600000  13.1610000   6.6160000  -8.2560000  17.9840000
   6.4590000  -9.2000000  17.9480000   6.5270000  -7.9640000  17.0770000
   6.5840000  -8.3400000  17.8630000  13.4460000 -14.4600000   2.6620000
  13.5500000 -14.1160000   3.5490000  13.3160000 -13.6840000   2.1170000
  13.4430000 -14.3170000   2.7060000  16.0880000 -13.6120000   9.9890000
  17.0000000 -13.6010000  10.2820000  16.0880000 -14.1970000   9.2310000
  16.2050000 -13.6860000   9.9300000  13.9330000  -9.2750000  11.8400000
  13.0580000  -9.5320000  11.5500000  14.2850000 -10.0580000  12.2640000
  13.8660000  -9.4080000  11.8570000   5.6750000 -17.2860000   0.6490000
   6.0170000 -17.2770000   1.5430000   5.1900000 -16.4640000   0.5710000
   5.6570000 -17.1790000   0.7530000   0.8440000 -17.3700000  10.5530000
   1.6780000 -16.9160000  10.4290000   0.2560000 -16.9710000   9.9130000
   0.8760000 -17.2610000  10.4560000   1.9430000 -18.2370000  17.5650000
   1.1100000 -18.6640000  17.7660000   1.9100000 -17.4100000  18.0450000
   1.8320000 -18.1860000  17.6520000   8.2780000 -12.7750000   8.3030000
   8.3640000 -13.5590000   8.8460000   8.7180000 -12.0880000   8.8030000
   8.3450000 -12.7870000   8.4360000  16.9400000 -15.1570000  17.6430000
  16.0410000 -15.4850000  17.6380000  17.2650000 -15.3340000  16.7610000
  16.8660000 -15.2220000  17.5300000  16.9560000  -4.0350000   3.6390000
  17.0770000  -3.1600000   3.2710000  17.1650000  -4.6290000   2.9180000
  16.9980000  -3.9990000   3.4990000  15.3740000 -18.6360000   2.5170000
  15.5020000 -17.7210000   2.2650000  14.4250000 -18.7310000   2.6020000
  15.2690000 -18.5310000   2.4960000  11.4040000  -4.7510000  16.7730000
  11.9860000  -4.9150000  17.5140000  10.8110000  -4.0650000  17.0810000
  11.4020000  -4.6840000  16.9070000  18.5490000 -17.2980000   0.5180000
  18.3730000 -16.4570000   0.0970000  17.7400000 -17.7970000   0.4040000
  18.4230000 -17.2540000   0.4500000  21.1180000 -11.3700000   7.8960000
  21.1320000 -11.6830000   8.8010000  21.0690000 -10.4170000   7.9730000
  21.1140000 -11.2880000   8.0220000  10.5110000 -13.4340000   1.7790000
   9.8850000 -14.1580000   1.8030000  10.7290000 -13.2750000   2.6970000
  10.4590000 -13.5060000   1.8990000   7.2490000 -11.7860000  13.8990000
   6.4040000 -12.1060000  14.2160000   7.7220000 -12.5770000  13.6400000
   7.2010000 -11.9280000  13.9070000  16.9770000 -15.9190000  15.0740000
  16.1110000 -16.0830000  14.7030000  17.5590000 -16.5110000  14.5960000
  16.9410000 -16.0160000  14.9650000  16.6830000 -10.4690000   1.7800000
  16.2260000 -10.7100000   2.5860000  17.6090000 -10.6090000   1.9790000
  16.7430000 -10.5180000   1.9090000   6.4380000  -7.5600000  15.2610000
   7.3180000  -7.9330000  15.2090000   5.9000000  -8.1410000  14.7240000
   6.4820000  -7.6820000  15.1860000  17.5640000  -2.0820000  15.4970000
  17.7620000  -2.4770000  16.3470000  16.8930000  -1.4270000  15.6880000
  17.5030000  -2.0490000  15.6300000  14.8080000 -14.7520000   7.3680000
  15.5040000 -15.1380000   6.8350000  14.1980000 -15.4740000   7.5230000
  14.8190000 -14.8940000   7.3190000  16.7960000 -10.0420000  18.1040000
  15.9730000  -9.7020000  17.7550000  16.6520000 -10.0980000  19.0490000
  16.6730000 -10.0060000  18.1800000  10.7090000 -13.3160000   4.4430000
   9.8860000 -13.0330000   4.8390000  11.3870000 -12.9300000   4.9980000
  10.6910000 -13.2310000   4.5650000  12.7280000  -8.2150000   7.9910000
  13.2730000  -7.7140000   8.5980000  12.0340000  -7.6080000   7.7340000
  12.7090000  -8.0740000   8.0360000  15.4320000 -10.9690000   4.1840000
  15.3890000 -10.3500000   4.9140000  15.0660000 -11.7800000   4.5360000
  15.3800000 -10.9930000   4.3230000  10.1820000 -10.1050000   4.6630000
   9.5100000 -10.7860000   4.6930000  10.2610000  -9.8880000   3.7340000
  10.1060000 -10.1640000   4.5480000   3.8690000 -15.2520000  18.6260000
   3.7160000 -14.9720000  17.7240000   3.6320000 -14.4920000  19.1570000
   3.8190000 -15.1190000  18.5790000   5.8020000 -11.1310000  17.7320000
   5.6870000 -11.4150000  16.8250000   4.9110000 -11.0280000  18.0650000
   5.6730000 -11.1540000  17.6590000   4.8470000 -12.8040000  12.5780000
   4.2570000 -13.5430000  12.4260000   5.4590000 -12.8320000  11.8430000
   4.8500000 -12.9020000  12.4640000  14.1970000  -9.9590000  17.2920000
  13.5060000 -10.5990000  17.4600000  13.9890000  -9.6030000  16.4290000
  14.0820000  -9.9960000  17.2030000   7.5620000  -7.6760000   1.7180000
   7.1790000  -7.9850000   0.8970000   7.8010000  -6.7650000   1.5430000
   7.5440000  -7.5990000   1.5910000   1.8180000 -16.2210000   7.3960000
   1.5800000 -17.0400000   6.9620000   1.0570000 -15.6530000   7.2690000
   1.6900000 -16.2530000   7.3240000   6.3890000 -17.4060000   3.4000000
   6.6340000 -18.2810000   3.7010000   6.1740000 -16.9290000   4.2010000
   6.3930000 -17.4570000   3.5410000  11.6210000 -15.6570000   5.9380000
  11.3270000 -14.9420000   5.3740000  11.3500000 -15.3960000   6.8180000
  11.5490000 -15.5320000   5.9780000  15.5740000  -5.1050000   7.6390000
  14.6590000  -5.0950000   7.3560000  15.6960000  -5.9730000   8.0240000
  15.4720000  -5.2150000   7.6520000   1.8870000  -0.9130000   8.7990000
   1.3450000  -0.4900000   9.4660000   2.7860000  -0.7160000   9.0610000
   1.9320000  -0.8330000   8.9180000  14.5340000 -12.2840000   0.8890000
  15.0120000 -12.6370000   0.1400000  15.0360000 -11.5120000   1.1520000
  14.6590000 -12.2300000   0.8270000   3.4280000  -6.8480000  15.7190000
   3.3900000  -6.5310000  14.8170000   2.5560000  -7.2070000  15.8840000
   3.3110000  -6.8540000  15.6250000   7.3360000  -5.1080000  14.2940000
   6.5530000  -4.7020000  13.9250000   7.0480000  -5.9790000  14.5670000
   7.1990000  -5.1680000  14.2820000   1.0740000  -3.0960000  11.0370000
   1.7290000  -2.7350000  10.4400000   0.3960000  -3.4510000  10.4620000
   1.0710000  -3.0950000  10.8870000  16.3860000 -21.2050000  10.2880000
  16.5320000 -20.7990000  11.1430000  15.4410000 -21.1360000  10.1490000
  16.2840000 -21.1440000  10.3800000   1.9780000  -8.2170000  18.7420000
   2.7810000  -7.7070000  18.6320000   1.5280000  -7.7990000  19.4760000
   2.0230000  -8.0980000  18.8220000  12.4740000 -11.0690000   8.0020000
  12.9720000 -11.2760000   7.2110000  12.6580000 -10.1440000   8.1660000
  12.5610000 -10.9770000   7.9220000   7.0990000 -12.3230000   1.7430000
   6.6180000 -13.1400000   1.6120000   7.5330000 -12.1640000   0.9050000
   7.0930000 -12.4070000   1.6190000  18.4950000  -4.0190000   8.8560000
  17.6510000  -3.6060000   9.0400000  18.3630000  -4.9410000   9.0740000
  18.3700000  -4.0840000   8.9070000   0.4010000 -13.5300000  10.8970000
   1.1990000 -13.8800000  10.5020000   0.3810000 -13.9100000  11.7750000
   0.5000000 -13.6240000  10.9590000   9.7950000 -10.4730000   8.6250000
   9.3880000  -9.7130000   8.2090000  10.6570000 -10.5380000   8.2150000
   9.8530000 -10.3840000   8.5190000  14.3320000  -9.2340000   6.1070000
  15.0060000  -8.8220000   6.6470000  13.5220000  -8.7880000   6.3530000
  14.3150000  -9.1240000   6.2070000  12.7890000 -14.7330000  12.1490000
  12.3350000 -14.2910000  11.4310000  12.2470000 -14.5580000  12.9180000
  12.6620000 -14.6540000  12.1550000  11.3280000 -13.2570000   9.9590000
  11.9540000 -12.8070000   9.3920000  11.1860000 -14.1040000   9.5350000
  11.3900000 -13.3080000   9.8320000   9.8630000  -5.3800000  13.4580000
  10.2560000  -4.5590000  13.7540000   8.9500000  -5.3250000  13.7400000
   9.7970000  -5.2680000  13.5320000  11.3520000 -16.5120000   2.7150000
  10.5930000 -16.2640000   2.1870000  11.9070000 -15.7320000   2.7160000
  11.3260000 -16.3800000   2.6480000   3.8870000 -13.2190000   4.4320000
   3.7970000 -13.4900000   3.5190000   2.9890000 -13.0620000   4.7250000
   3.7600000 -13.2330000   4.3530000  13.4740000 -17.3280000   7.2280000
  12.8120000 -16.9220000   6.6680000  14.1690000 -17.5910000   6.6250000
  13.4780000 -17.3090000   7.0790000  15.0870000 -12.0960000  12.6070000
  14.8220000 -12.7480000  13.2570000  15.3060000 -12.6090000  11.8290000
  15.0810000 -12.2450000  12.5910000   5.8330000 -10.3030000   6.8320000
   6.0210000 -11.0550000   6.2700000   6.6890000  -9.9120000   7.0020000
   5.9660000 -10.3490000   6.7820000   7.4890000 -15.4430000  16.0720000
   8.4110000 -15.3670000  16.3160000   7.0370000 -14.8260000  16.6470000
   7.5490000 -15.3550000  16.1760000   4.4800000 -18.4330000   8.9910000
   4.6510000 -17.5120000   9.1900000   5.0460000 -18.9170000   9.5920000
   4.5740000 -18.3770000   9.0930000  16.1400000 -18.5670000  18.8070000
  15.5990000 -19.0820000  19.4050000  15.6760000 -17.7340000  18.7200000
  16.0120000 -18.5260000  18.8730000  17.5090000 -11.0160000  14.0050000
  16.6130000 -11.3410000  13.9180000  17.4090000 -10.1210000  14.3300000
  17.3810000 -10.9430000  14.0360000   9.3370000 -11.9480000  11.1590000
   8.8880000 -12.7020000  11.5410000  10.0590000 -12.3280000  10.6590000
   9.3720000 -12.0930000  11.1440000  10.8720000  -7.8240000  12.8710000
  10.5960000  -7.0000000  13.2730000  11.8230000  -7.8370000  12.9800000
  10.9590000  -7.7200000  12.9360000   6.3600000 -15.2110000   5.1420000
   6.2120000 -14.2680000   5.0640000   5.5680000 -15.5430000   5.5660000
   6.2400000 -15.1330000   5.1860000  10.0110000 -14.8670000  17.5610000
   9.5450000 -14.2690000  18.1450000  10.6060000 -14.3030000  17.0660000
  10.0270000 -14.7190000  17.5720000   5.6160000 -14.7220000   1.7370000
   4.6990000 -14.9370000   1.9030000   6.0910000 -15.1100000   2.4720000
   5.5590000 -14.7990000   1.8520000   0.4060000 -17.0670000  13.5900000
   1.2680000 -17.1060000  14.0040000   0.5920000 -16.9170000  12.6630000
   0.5400000 -17.0530000  13.5240000  11.3230000  -9.5340000  10.9570000
  11.0550000  -8.8910000  11.6140000  10.5240000  -9.7160000  10.4610000
  11.1860000  -9.4750000  10.9770000  -0.1350000 -11.8960000  17.5770000
  -0.7350000 -11.1630000  17.7180000   0.4120000 -11.9130000  18.3630000
  -0.1420000 -11.8040000  17.6960000  11.3000000 -11.2000000  13.5190000
  11.1370000 -10.8910000  12.6280000  10.4390000 -11.4640000  13.8420000
  11.1690000 -11.1940000  13.4470000  11.5220000 -16.9790000  17.6570000
  11.5190000 -17.2690000  16.7450000  10.8500000 -16.2980000  17.6940000
  11.4350000 -16.9290000  17.5450000   3.1810000 -18.3160000   1.6650000
   3.1820000 -17.5740000   2.2690000   3.6850000 -18.0120000   0.9110000
   3.2460000 -18.1820000   1.6460000  15.5820000 -12.8410000  17.2860000
  16.2950000 -13.4730000  17.3810000  16.0220000 -12.0040000  17.1400000
  15.7290000 -12.8150000  17.2790000   1.6110000 -11.0590000  10.8080000
   0.8320000 -10.5530000  11.0390000   1.3490000 -11.9720000  10.9310000
   1.4780000 -11.1110000  10.8530000   0.3380000 -15.8180000   3.1190000
   0.2810000 -16.0720000   2.1980000  -0.2100000 -15.0360000   3.1870000
   0.2610000 -15.7500000   3.0100000   5.8910000 -18.2450000   6.5500000
   5.4860000 -18.5760000   7.3520000   5.9980000 -19.0190000   5.9980000
   5.8530000 -18.3860000   6.5820000  16.9760000  -2.7860000   6.2900000
  17.0460000  -3.4150000   7.0070000  17.0420000  -3.3180000   5.4970000
  16.9930000  -2.9340000   6.2800000   6.4340000 -12.1990000   4.4360000
   6.8070000 -12.2640000   3.5570000   5.5290000 -12.4950000   4.3350000
   6.3660000 -12.2460000   4.3110000   8.5790000 -15.3020000   6.8210000
   7.7270000 -15.4400000   6.4090000   8.6290000 -14.3550000   6.9570000
   8.4770000 -15.1980000   6.7860000   3.4510000 -14.6340000  16.0120000
   4.2420000 -14.6010000  15.4750000   3.0910000 -13.7480000  15.9640000
   3.5060000 -14.5170000  15.9370000  14.6070000 -16.3810000  17.4810000
  14.6680000 -16.7280000  16.5910000  13.6670000 -16.3330000  17.6550000
  14.4940000 -16.4190000  17.3890000   4.9940000  -4.3330000  12.8390000
   4.4240000  -3.6460000  13.1860000   4.5420000  -5.1490000  13.0530000
   4.8630000  -4.3490000  12.9110000   9.2970000 -17.1280000   4.9120000
   9.0720000 -16.3430000   5.4110000  10.1960000 -16.9760000   4.6200000
   9.3840000 -17.0080000   4.9390000  14.7240000 -17.4080000   9.7820000
  15.5950000 -17.8010000   9.8390000  14.6250000 -17.1770000   8.8590000
  14.8230000 -17.4290000   9.6710000  11.6320000 -17.1410000  14.9160000
  11.3720000 -17.9170000  14.4190000  12.5880000 -17.1360000  14.8680000
  11.7210000 -17.2400000  14.8460000  14.7490000 -13.5430000   5.0300000
  14.5280000 -13.7930000   5.9280000  15.5650000 -14.0090000   4.8470000
  14.8250000 -13.6350000   5.1220000   8.5520000 -14.9930000  10.1970000
   7.7010000 -15.4240000  10.1100000   8.6510000 -14.8460000  11.1380000
   8.4550000 -15.0290000  10.3060000   7.1830000 -17.9720000  17.3480000
   6.6300000 -17.6610000  18.0640000   7.2440000 -17.2260000  16.7510000
   7.1200000 -17.8370000  17.3630000  17.4400000 -13.5190000   2.8660000
  16.6170000 -14.0060000   2.8180000  17.1880000 -12.6550000   3.1940000
  17.3030000 -13.4710000   2.9020000  14.4970000  -6.1860000  16.8850000
  13.8570000  -6.7190000  17.3570000  14.4590000  -6.5090000  15.9840000
  14.4100000  -6.2960000  16.8300000   8.2640000  -3.8180000  17.0200000
   7.8770000  -4.1830000  16.2240000   7.6160000  -3.1890000  17.3350000
   8.1310000  -3.7850000  16.9590000   2.5270000 -14.8380000   9.8110000
   2.4330000 -15.3050000   8.9810000   3.3500000 -15.1610000  10.1760000
   2.6200000 -14.9390000   9.7520000  17.1640000  -8.3490000  14.7020000
  16.2730000  -8.1330000  14.9800000  17.4410000  -7.5960000  14.1800000
  17.0850000  -8.2250000  14.6710000  16.2320000  -6.3270000   5.1340000
  16.2540000  -6.2110000   6.0840000  16.4050000  -5.4540000   4.7830000
  16.2570000  -6.2000000   5.2110000  15.6070000  -0.3870000   5.4410000
  15.3430000  -0.4220000   4.5220000  16.2290000  -1.1080000   5.5400000
  15.6530000  -0.4840000   5.3360000   4.6900000 -15.5800000  11.0670000
   5.1420000 -16.1590000  11.6810000   5.2530000 -15.5650000  10.2940000
   4.8200000 -15.6520000  11.0470000   1.2720000 -12.4800000  15.3360000
   0.7060000 -12.1190000  14.6540000   0.7760000 -12.3640000  16.1460000
   1.1360000 -12.4190000  15.3520000  14.2810000  -3.0160000  16.7890000
  14.5510000  -3.9200000  16.9490000  13.3290000  -3.0290000  16.8900000
  14.1940000  -3.1330000  16.8230000  14.5910000  -7.3100000  14.4860000
  13.9810000  -8.0460000  14.5420000  14.1590000  -6.6860000  13.9030000
  14.4580000  -7.3250000  14.4190000   3.6890000  -6.7220000  12.9110000
   3.2280000  -6.3780000  12.1460000   3.7700000  -7.6600000  12.7390000
   3.6400000  -6.7980000  12.7910000   6.7250000 -13.6220000  18.0400000
   5.9600000 -14.0190000  18.4570000   6.4710000 -12.7110000  17.8910000
   6.5940000 -13.5560000  18.0740000   3.2440000 -15.7910000   3.0670000
   3.5520000 -15.7260000   3.9710000   2.3260000 -16.0490000   3.1460000
   3.1660000 -15.8160000   3.1930000  12.5530000 -11.5300000   5.4510000
  13.1730000 -11.0860000   4.8720000  11.7430000 -11.0260000   5.3660000
  12.5290000 -11.4080000   5.3660000  14.3060000 -15.8380000  14.3830000
  14.0190000 -15.0120000  14.7740000  14.0830000 -15.7540000  13.4560000
  14.2400000 -15.7210000  14.3150000  17.9590000  -1.2080000   3.1130000
  18.5460000  -1.3850000   2.3780000  17.3680000  -0.5280000   2.7890000
  17.9580000  -1.1440000   2.9770000  18.3210000 -14.5020000   6.8690000
  18.9030000 -14.0170000   6.2830000  17.7550000 -13.8320000   7.2520000
  18.3230000 -14.3540000   6.8430000   6.0400000 -15.6830000   8.7350000
   5.8620000 -15.0930000   8.0030000   6.5250000 -16.4100000   8.3450000
   6.0790000 -15.7000000   8.5920000   2.3260000  -5.5860000  11.1170000
   2.5850000  -4.8930000  10.5090000   1.4540000  -5.3270000  11.4160000
   2.2480000  -5.4640000  11.0770000   8.9440000 -11.0850000  16.0030000
   8.1900000 -11.4150000  15.5140000   8.7430000 -11.2830000  16.9170000
   8.8220000 -11.1530000  16.0570000  12.4940000 -11.7620000  18.0720000
  11.7100000 -11.8010000  18.6200000  13.1310000 -12.3130000  18.5260000
  12.4750000 -11.8370000  18.2000000  18.0900000 -17.9700000   7.6060000
  17.4940000 -18.3200000   8.2680000  18.8080000 -18.6020000   7.5710000
  18.1060000 -18.0950000   7.6860000  14.1600000  -7.3250000   3.3130000
  14.5560000  -6.9840000   4.1150000  14.6510000  -6.9060000   2.6060000
  14.2730000  -7.2280000   3.3250000  13.8890000 -13.2390000  15.2750000
  14.5820000 -13.0450000  15.9070000  13.2530000 -12.5330000  15.3930000
  13.8960000 -13.1240000  15.3710000   6.4660000 -16.2980000  -5.2660000
   6.6940000 -16.3260000  -4.3370000   5.8370000 -17.0100000  -5.3790000
   6.4150000 -16.3930000  -5.1610000   4.3820000 -18.0120000  -5.7600000
   3.8220000 -17.5640000  -5.1260000   4.2360000 -18.9430000  -5.5930000
   4.2920000 -18.0740000  -5.6580000   8.5960000 -14.5620000  -5.9070000
   7.9930000 -15.2030000  -5.5320000   9.3850000 -14.6310000  -5.3690000
   8.6200000 -14.6520000  -5.7900000   9.1340000 -18.1250000   0.3710000
  10.0260000 -18.3540000   0.1070000   8.6120000 -18.2460000  -0.4220000
   9.1820000 -18.1690000   0.2360000   6.7990000  -1.7250000 -14.8600000
   6.0000000  -2.2520000 -14.8500000   7.1430000  -1.8280000 -15.7470000
   6.7410000  -1.8060000 -14.9720000  11.0190000 -14.7360000  -4.6390000
  11.1970000 -15.6180000  -4.3130000  11.3380000 -14.1560000  -3.9470000
  11.0830000 -14.7750000  -4.5080000  17.5780000 -11.8170000 -11.2990000
  16.7990000 -11.7070000 -10.7540000  17.9220000 -10.9310000 -11.4080000
  17.5220000 -11.6900000 -11.2430000   8.9090000  -8.5010000  -3.8670000
   8.7810000  -9.3660000  -3.4780000   9.3520000  -8.6760000  -4.6980000
   8.9490000  -8.6340000  -3.9240000  17.5210000  -7.9120000 -15.1180000
  17.1550000  -7.2710000 -14.5080000  16.7560000  -8.3340000 -15.5100000
  17.3760000  -7.8840000 -15.0900000   0.0330000 -14.1710000  -5.3100000
   0.3100000 -13.6020000  -4.5920000  -0.5690000 -14.7940000  -4.9030000
  -0.0080000 -14.1780000  -5.1660000   0.9060000  -7.8340000  -2.7170000
  -0.0150000  -8.0540000  -2.8570000   0.9860000  -7.7270000  -1.7700000
   0.7980000  -7.8490000  -2.6140000   2.7270000 -17.1690000  -3.7220000
   2.9340000 -16.2710000  -3.4650000   2.3710000 -17.5700000  -2.9290000
   2.7080000 -17.1060000  -3.5880000   4.0350000 -16.3780000 -13.0220000
   3.2770000 -16.3910000 -12.4370000   4.5670000 -17.1220000 -12.7410000
   4.0060000 -16.4750000 -12.9110000  11.0750000 -12.6800000  -2.7230000
  11.6610000 -12.3670000  -2.0340000  10.3490000 -12.0550000  -2.7230000
  11.0570000 -12.5600000  -2.6350000   0.5960000 -14.1670000   0.3310000
   0.3980000 -14.0860000  -0.6010000  -0.1980000 -13.8640000   0.7720000
   0.4690000 -14.1180000   0.2680000   6.6700000 -11.6040000  -8.2460000
   7.5510000 -11.3120000  -8.0140000   6.7560000 -11.9380000  -9.1390000
   6.7940000 -11.6090000  -8.3310000   0.5640000  -5.1410000  -0.9120000
  -0.1980000  -4.5730000  -1.0290000   0.7690000  -5.4510000  -1.7940000
   0.4920000  -5.1080000  -1.0400000  10.9670000 -15.7850000 -10.0620000
  10.0150000 -15.8480000  -9.9910000  11.2950000 -16.5130000  -9.5340000
  10.8870000 -15.8860000  -9.9850000  17.3110000  -6.0090000  -5.7120000
  16.5970000  -5.4040000  -5.9110000  18.0270000  -5.4460000  -5.4150000
  17.3120000  -5.8600000  -5.6990000   6.6160000  -8.2560000  -0.8760000
   6.4590000  -9.2000000  -0.9120000   6.5270000  -7.9640000  -1.7830000
   6.5840000  -8.3400000  -0.9970000  16.0880000 -13.6120000  -8.8710000
  17.0000000 -13.6010000  -8.5780000  16.0880000 -14.1970000  -9.6290000
  16.2050000 -13.6860000  -8.9300000   0.8440000 -17.3700000  -8.3070000
   1.6780000 -16.9160000  -8.4310000   0.2560000 -16.9710000  -8.9470000
   0.8760000 -17.2610000  -8.4040000   1.9430000 -18.2370000  -1.2950000
   1.1100000 -18.6640000  -1.0940000   1.9100000 -17.4100000  -0.8150000
   1.8320000 -18.1860000  -1.2080000   8.2780000 -12.7750000 -10.5570000
   8.3640000 -13.5590000 -10.0140000   8.7180000 -12.0880000 -10.0570000
   8.3450000 -12.7870000 -10.4240000  16.9400000 -15.1570000  -1.2170000
  16.0410000 -15.4850000  -1.2220000  17.2650000 -15.3340000  -2.0990000
  16.8660000 -15.2220000  -1.3300000  16.9560000  -4.0350000 -15.2210000
  17.0770000  -3.1600000 -15.5890000  17.1650000  -4.6290000 -15.9420000
  16.9980000  -3.9990000 -15.3610000  15.3740000 -18.6360000 -16.3430000
  15.5020000 -17.7210000 -16.5950000  14.4250000 -18.7310000 -16.2580000
  15.2690000 -18.5310000 -16.3640000  18.5490000 -17.2980000 -18.3420000
  18.3730000 -16.4570000 -18.7630000  17.7400000 -17.7970000 -18.4560000
  18.4230000 -17.2540000 -18.4100000  21.1180000 -11.3700000 -10.9640000
  21.1320000 -11.6830000 -10.0590000  21.0690000 -10.4170000 -10.8870000
  21.1140000 -11.2880000 -10.8380000   7.2490000 -11.7860000  -4.9610000
   6.4040000 -12.1060000  -4.6440000   7.7220000 -12.5770000  -5.2200000
   7.2010000 -11.9280000  -4.9530000   4.1760000  -6.6000000  -0.6270000
   4.9870000  -7.0880000  -0.7690000   3.9070000  -6.3230000  -1.5030000
   4.2450000  -6.6270000  -0.7580000  16.9770000 -15.9190000  -3.7860000
  16.1110000 -16.0830000  -4.1570000  17.5590000 -16.5110000  -4.2640000
  16.9410000 -16.0160000  -3.8950000  16.6830000 -10.4690000 -17.0800000
  16.2260000 -10.7100000 -16.2740000  17.6090000 -10.6090000 -16.8810000
  16.7430000 -10.5180000 -16.9510000  15.4270000  -3.8490000  -5.2420000
  15.0760000  -3.9520000  -4.3570000  15.5750000  -2.9070000  -5.3320000
  15.4010000  -3.7420000  -5.1400000  17.5640000  -2.0820000  -3.3630000
  17.7620000  -2.4770000  -2.5130000  16.8930000  -1.4270000  -3.1720000
  17.5030000  -2.0490000  -3.2300000  12.8820000  -9.3030000  -3.9500000
  12.3250000  -9.6970000  -4.6220000  12.3060000  -8.6930000  -3.4900000
  12.7370000  -9.2750000  -3.9770000  16.7960000 -10.0420000  -0.7560000
  15.9730000  -9.7020000  -1.1050000  16.6520000 -10.0980000   0.1890000
  16.6730000 -10.0060000  -0.6800000  15.4320000 -10.9690000 -14.6760000
  15.3890000 -10.3500000 -13.9460000  15.0660000 -11.7800000 -14.3240000
  15.3800000 -10.9930000 -14.5370000   3.8690000 -15.2520000  -0.2340000
   3.7160000 -14.9720000  -1.1360000   3.6320000 -14.4920000   0.2970000
   3.8190000 -15.1190000  -0.2810000   4.8470000 -12.8040000  -6.2820000
   4.2570000 -13.5430000  -6.4340000   5.4590000 -12.8320000  -7.0170000
   4.8500000 -12.9020000  -6.3960000  14.1970000  -9.9590000  -1.5680000
  13.5060000 -10.5990000  -1.4000000  13.9890000  -9.6030000  -2.4310000
  14.0820000  -9.9960000  -1.6570000   1.8180000 -16.2210000 -11.4640000
   1.5800000 -17.0400000 -11.8980000   1.0570000 -15.6530000 -11.5910000
   1.6900000 -16.2530000 -11.5360000  11.6210000 -15.6570000 -12.9220000
  11.3270000 -14.9420000 -13.4860000  11.3500000 -15.3960000 -12.0420000
  11.5490000 -15.5320000 -12.8820000  15.5740000  -5.1050000 -11.2210000
  14.6590000  -5.0950000 -11.5040000  15.6960000  -5.9730000 -10.8360000
  15.4720000  -5.2150000 -11.2080000   5.1960000  -8.7880000 -14.1370000
   6.0190000  -8.3020000 -14.1750000   5.2470000  -9.2830000 -13.3200000
   5.3080000  -8.7890000 -14.0380000  14.5340000 -12.2840000 -17.9710000
  15.0120000 -12.6370000 -18.7200000  15.0360000 -11.5120000 -17.7080000
  14.6590000 -12.2300000 -18.0330000  16.3860000 -21.2050000  -8.5720000
  16.5320000 -20.7990000  -7.7170000  15.4410000 -21.1360000  -8.7110000
  16.2840000 -21.1440000  -8.4800000   1.9780000  -8.2170000  -0.1180000
   2.7810000  -7.7070000  -0.2280000   1.5280000  -7.7990000   0.6160000
   2.0230000  -8.0980000  -0.0380000  12.4740000 -11.0690000 -10.8580000
  12.9720000 -11.2760000 -11.6490000  12.6580000 -10.1440000 -10.6940000
  12.5610000 -10.9770000 -10.9380000   1.0630000  -7.2860000 -16.6590000
   1.8300000  -7.6090000 -16.1840000   0.3210000  -7.5250000 -16.1040000
   1.0660000  -7.3580000 -16.5270000  18.4950000  -4.0190000 -10.0040000
  17.6510000  -3.6060000  -9.8200000  18.3630000  -4.9410000  -9.7860000
  18.3700000  -4.0840000  -9.9530000   0.4010000 -13.5300000  -7.9630000
   1.1990000 -13.8800000  -8.3580000   0.3810000 -13.9100000  -7.0850000
   0.5000000 -13.6240000  -7.9010000   9.7950000 -10.4730000 -10.2350000
   9.3880000  -9.7130000 -10.6510000  10.6570000 -10.5380000 -10.6450000
   9.8530000 -10.3840000 -10.3410000  14.3320000  -9.2340000 -12.7530000
  15.0060000  -8.8220000 -12.2130000  13.5220000  -8.7880000 -12.5070000
  14.3150000  -9.1240000 -12.6530000  12.7890000 -14.7330000  -6.7110000
  12.3350000 -14.2910000  -7.4290000  12.2470000 -14.5580000  -5.9420000
  12.6620000 -14.6540000  -6.7050000  17.9540000  -9.8050000  -7.7670000
  17.5650000 -10.2790000  -7.0310000  17.4190000  -9.0160000  -7.8530000
  17.8360000  -9.7650000  -7.6840000  11.3280000 -13.2570000  -8.9010000
  11.9540000 -12.8070000  -9.4680000  11.1860000 -14.1040000  -9.3250000
  11.3900000 -13.3080000  -9.0280000  11.3520000 -16.5120000 -16.1450000
  10.5930000 -16.2640000 -16.6730000  11.9070000 -15.7320000 -16.1440000
  11.3260000 -16.3800000 -16.2120000  13.4740000 -17.3280000 -11.6320000
  12.8120000 -16.9220000 -12.1920000  14.1690000 -17.5910000 -12.2350000
  13.4780000 -17.3090000 -11.7810000  15.0870000 -12.0960000  -6.2530000
  14.8220000 -12.7480000  -5.6030000  15.3060000 -12.6090000  -7.0310000
  15.0810000 -12.2450000  -6.2690000   5.8330000 -10.3030000 -12.0280000
   6.0210000 -11.0550000 -12.5900000   6.6890000  -9.9120000 -11.8580000
   5.9660000 -10.3490000 -12.0780000   7.4890000 -15.4430000  -2.7880000
   8.4110000 -15.3670000  -2.5440000   7.0370000 -14.8260000  -2.2130000
   7.5490000 -15.3550000  -2.6840000  12.6460000  -4.8510000  -9.0170000
  12.7440000  -4.6040000  -9.9370000  11.7920000  -4.5010000  -8.7650000
  12.5490000  -4.7750000  -9.1020000  10.0360000  -0.4370000 -11.6780000
   9.8510000  -1.2640000 -12.1240000   9.7240000   0.2360000 -12.2830000
   9.9720000  -0.4570000 -11.8130000  16.1400000 -18.5670000  -0.0530000
  15.5990000 -19.0820000   0.5450000  15.6760000 -17.7340000  -0.1400000
  16.0120000 -18.5260000   0.0130000  17.5090000 -11.0160000  -4.8550000
  16.6130000 -11.3410000  -4.9420000  17.4090000 -10.1210000  -4.5300000
  17.3810000 -10.9430000  -4.8240000   7.8260000  -0.0570000  -9.5050000
   7.7920000  -0.7440000  -8.8400000   8.3020000  -0.4520000 -10.2350000
   7.8820000  -0.1950000  -9.5130000   9.3370000 -11.9480000  -7.7010000
   8.8880000 -12.7020000  -7.3190000  10.0590000 -12.3280000  -8.2010000
   9.3720000 -12.0930000  -7.7160000  10.8720000  -7.8240000  -5.9890000
  10.5960000  -7.0000000  -5.5870000  11.8230000  -7.8370000  -5.8800000
  10.9590000  -7.7200000  -5.9240000  10.0110000 -14.8670000  -1.2990000
   9.5450000 -14.2690000  -0.7150000  10.6060000 -14.3030000  -1.7940000
  10.0270000 -14.7190000  -1.2880000   2.2580000  -9.9760000  -3.8520000
   1.5790000  -9.3370000  -3.6320000   1.8490000 -10.8250000  -3.6890000
   2.1180000 -10.0030000  -3.8030000  13.2180000  -1.9710000 -12.8880000
  12.8500000  -1.3900000 -12.2230000  14.1090000  -1.6480000 -13.0220000
  13.2850000  -1.8550000 -12.8200000   0.4060000 -17.0670000  -5.2700000
   1.2680000 -17.1060000  -4.8560000   0.5920000 -16.9170000  -6.1970000
   0.5400000 -17.0530000  -5.3360000  11.3230000  -9.5340000  -7.9030000
  11.0550000  -8.8910000  -7.2460000  10.5240000  -9.7160000  -8.3990000
  11.1860000  -9.4750000  -7.8830000  -0.1350000 -11.8960000  -1.2830000
  -0.7350000 -11.1630000  -1.1420000   0.4120000 -11.9130000  -0.4970000
  -0.1420000 -11.8040000  -1.1640000  11.3000000 -11.2000000  -5.3410000
  11.1370000 -10.8910000  -6.2320000  10.4390000 -11.4640000  -5.0180000
  11.1690000 -11.1940000  -5.4130000  11.5220000 -16.9790000  -1.2030000
  11.5190000 -17.2690000  -2.1150000  10.8500000 -16.2980000  -1.1660000
  11.4350000 -16.9290000  -1.3150000  11.2320000  -7.5370000  -2.8050000
  10.4140000  -7.6930000  -3.2760000  11.2800000  -6.5850000  -2.7160000
  11.1340000  -7.4350000  -2.8540000  15.5820000 -12.8410000  -1.5740000
  16.2950000 -13.4730000  -1.4790000  16.0220000 -12.0040000  -1.7200000
  15.7290000 -12.8150000  -1.5810000  17.0550000  -1.5640000  -6.0050000
  17.3370000  -1.6600000  -5.0950000  16.2740000  -1.0130000  -5.9560000
  16.9910000  -1.5060000  -5.8820000   0.3380000 -15.8180000 -15.7410000
   0.2810000 -16.0720000 -16.6620000  -0.2100000 -15.0360000 -15.6730000
   0.2610000 -15.7500000 -15.8500000   4.8090000 -11.7610000  -3.7620000
   4.7180000 -11.8810000  -4.7070000   4.0850000 -11.1830000  -3.5240000
   4.7050000 -11.7020000  -3.8530000   5.8910000 -18.2450000 -12.3100000
   5.4860000 -18.5760000 -11.5080000   5.9980000 -19.0190000 -12.8620000
   5.8530000 -18.3860000 -12.2780000  16.9760000  -2.7860000 -12.5700000
  17.0460000  -3.4150000 -11.8530000  17.0420000  -3.3180000 -13.3630000
  16.9930000  -2.9340000 -12.5800000   8.5790000 -15.3020000 -12.0390000
   7.7270000 -15.4400000 -12.4510000   8.6290000 -14.3550000 -11.9030000
   8.4770000 -15.1980000 -12.0740000   3.4510000 -14.6340000  -2.8480000
   4.2420000 -14.6010000  -3.3850000   3.0910000 -13.7480000  -2.8960000
   3.5060000 -14.5170000  -2.9230000  14.6070000 -16.3810000  -1.3790000
  14.6680000 -16.7280000  -2.2690000  13.6670000 -16.3330000  -1.2050000
  14.4940000 -16.4190000  -1.4710000   9.2970000 -17.1280000 -13.9480000
   9.0720000 -16.3430000 -13.4490000  10.1960000 -16.9760000 -14.2400000
   9.3840000 -17.0080000 -13.9210000  14.7240000 -17.4080000  -9.0780000
  15.5950000 -17.8010000  -9.0210000  14.6250000 -17.1770000 -10.0010000
  14.8230000 -17.4290000  -9.1890000  11.6320000 -17.1410000  -3.9440000
  11.3720000 -17.9170000  -4.4410000  12.5880000 -17.1360000  -3.9920000
  11.7210000 -17.2400000  -4.0140000   8.5520000 -14.9930000  -8.6630000
   7.7010000 -15.4240000  -8.7500000   8.6510000 -14.8460000  -7.7220000
   8.4550000 -15.0290000  -8.5540000   7.1830000 -17.9720000  -1.5120000
   6.6300000 -17.6610000  -0.7960000   7.2440000 -17.2260000  -2.1090000
   7.1200000 -17.8370000  -1.4970000  17.4400000 -13.5190000 -15.9940000
  16.6170000 -14.0060000 -16.0420000  17.1880000 -12.6550000 -15.6660000
  17.3030000 -13.4710000 -15.9580000  14.4970000  -6.1860000  -1.9750000
  13.8570000  -6.7190000  -1.5030000  14.4590000  -6.5090000  -2.8760000
  14.4100000  -6.2960000  -2.0300000   2.5270000 -14.8380000  -9.0490000
   2.4330000 -15.3050000  -9.8790000   3.3500000 -15.1610000  -8.6840000
   2.6200000 -14.9390000  -9.1080000  17.1640000  -8.3490000  -4.1580000
  16.2730000  -8.1330000  -3.8800000  17.4410000  -7.5960000  -4.6800000
  17.0850000  -8.2250000  -4.1890000  16.2320000  -6.3270000 -13.7260000
  16.2540000  -6.2110000 -12.7760000  16.4050000  -5.4540000 -14.0770000
  16.2570000  -6.2000000 -13.6490000   1.2720000 -12.4800000  -3.5240000
   0.7060000 -12.1190000  -4.2060000   0.7760000 -12.3640000  -2.7140000
   1.1360000 -12.4190000  -3.5080000   9.0880000  -2.4360000 -13.3780000
   8.8500000  -3.2490000 -12.9340000   8.2830000  -2.1580000 -13.8150000
   8.9550000  -2.5040000 -13.3770000  14.5910000  -7.3100000  -4.3740000
  13.9810000  -8.0460000  -4.3180000  14.1590000  -6.6860000  -4.9570000
  14.4580000  -7.3250000  -4.4410000   6.7250000 -13.6220000  -0.8210000
   5.9600000 -14.0190000  -0.4030000   6.4710000 -12.7110000  -0.9690000
   6.5940000 -13.5560000  -0.7860000   4.8450000  -3.3940000 -14.1770000
   4.1450000  -2.9960000 -14.6940000   5.2770000  -3.9970000 -14.7830000
   4.8110000  -3.4200000 -14.3210000  13.4460000  -5.4510000  -6.3550000
  13.2730000  -5.5280000  -7.2930000  14.2290000  -4.9040000  -6.3000000
  13.5240000  -5.3910000  -6.4680000  14.3060000 -15.8380000  -4.4770000
  14.0190000 -15.0120000  -4.0860000  14.0830000 -15.7540000  -5.4040000
  14.2400000 -15.7210000  -4.5450000  17.9590000  -1.2080000 -15.7470000
  18.5460000  -1.3850000 -16.4820000  17.3680000  -0.5280000 -16.0710000
  17.9580000  -1.1440000 -15.8830000  17.7990000  -2.8530000  -0.7520000
  17.0270000  -2.8220000  -0.1880000  18.4160000  -2.2430000  -0.3460000
  17.7790000  -2.7710000  -0.6270000  18.3210000 -14.5020000 -11.9910000
  18.9030000 -14.0170000 -12.5770000  17.7550000 -13.8320000 -11.6080000
  18.3230000 -14.3540000 -12.0170000   8.9440000 -11.0850000  -2.8570000
   8.1900000 -11.4150000  -3.3460000   8.7430000 -11.2830000  -1.9430000
   8.8220000 -11.1530000  -2.8030000  18.0900000 -17.9700000 -11.2540000
  17.4940000 -18.3200000 -10.5920000  18.8080000 -18.6020000 -11.2890000
  18.1060000 -18.0950000 -11.1740000  13.8890000 -13.2390000  -3.5850000
  14.5820000 -13.0450000  -2.9530000  13.2530000 -12.5330000  -3.4670000
  13.8960000 -13.1240000  -3.4890000   4.3820000 -18.0120000 -24.6200000
   3.8220000 -17.5640000 -23.9860000   4.2360000 -18.9430000 -24.4530000
   4.2920000 -18.0740000 -24.5180000   5.2010000  -9.7710000 -35.3720000
   5.0470000  -9.3140000 -34.5450000   5.9130000 -10.3810000 -35.1800000
   5.2720000  -9.7910000 -35.2420000  15.3620000  -3.6120000 -37.1860000
  14.5000000  -3.2840000 -37.4420000  15.2660000  -4.5640000 -37.1870000
  15.2390000  -3.6920000 -37.2190000  16.4590000 -16.1080000 -32.0000000
  16.5270000 -17.0550000 -32.1240000  17.3280000 -15.8430000 -31.6990000
  16.5790000 -16.1950000 -31.9770000  17.5780000 -11.8170000 -30.1590000
  16.7990000 -11.7070000 -29.6140000  17.9220000 -10.9310000 -30.2680000
  17.5220000 -11.6900000 -30.1030000   8.6740000 -15.6890000 -36.0110000
   8.4080000 -16.1520000 -35.2160000   8.6900000 -16.3660000 -36.6870000
   8.6420000 -15.8350000 -35.9950000  11.7850000  -7.5490000 -35.7080000
  12.5550000  -7.5280000 -35.1410000  12.1040000  -7.9160000 -36.5320000
  11.9240000  -7.5930000 -35.7410000  17.5210000  -7.9120000 -33.9780000
  17.1550000  -7.2710000 -33.3680000  16.7560000  -8.3340000 -34.3700000
  17.3760000  -7.8840000 -33.9500000   0.0330000 -14.1710000 -24.1700000
   0.3100000 -13.6020000 -23.4520000  -0.5690000 -14.7940000 -23.7630000
  -0.0080000 -14.1780000 -24.0260000  15.5030000  -6.3120000 -36.9610000
  15.5450000  -6.4460000 -37.9080000  16.3890000  -6.0450000 -36.7180000
  15.6220000  -6.2950000 -37.0510000   0.9060000  -7.8340000 -21.5770000
  -0.0150000  -8.0540000 -21.7170000   0.9860000  -7.7270000 -20.6300000
   0.7980000  -7.8490000 -21.4740000  15.8460000 -15.8820000 -34.8730000
  15.9780000 -16.0260000 -33.9360000  14.9780000 -15.4830000 -34.9330000
  15.7520000 -15.8500000 -34.7600000   4.6080000 -13.5650000 -30.6000000
   4.2010000 -13.5660000 -31.4670000   4.1220000 -12.9020000 -30.1090000
   4.4940000 -13.4800000 -30.6480000   4.0350000 -16.3780000 -31.8820000
   3.2770000 -16.3910000 -31.2970000   4.5670000 -17.1220000 -31.6010000
   4.0060000 -16.4750000 -31.7710000   8.6950000 -12.1790000 -32.0510000
   7.8700000 -12.1970000 -32.5360000   8.4440000 -12.3650000 -31.1460000
   8.5570000 -12.2050000 -31.9970000   3.5200000 -10.5570000 -37.3810000
   2.9170000  -9.8200000 -37.4770000   4.1490000 -10.2670000 -36.7200000
   3.5230000 -10.4260000 -37.3090000   7.9470000  -2.0950000 -36.0880000
   8.4060000  -2.9170000 -35.9160000   8.6450000  -1.4550000 -36.2270000
   8.0950000  -2.1180000 -36.0840000   0.5640000  -5.1410000 -19.7720000
  -0.1980000  -4.5730000 -19.8890000   0.7690000  -5.4510000 -20.6540000
   0.4920000  -5.1080000 -19.9000000  10.9670000 -15.7850000 -28.9220000
  10.0150000 -15.8480000 -28.8510000  11.2950000 -16.5130000 -28.3940000
  10.8870000 -15.8860000 -28.8450000  16.0960000  -7.7770000 -26.8000000
  16.5360000  -7.2700000 -26.1170000  15.4240000  -8.2740000 -26.3340000
  16.0670000  -7.7760000 -26.6530000  17.3110000  -6.0090000 -24.5720000
  16.5970000  -5.4040000 -24.7710000  18.0270000  -5.4460000 -24.2750000
  17.3120000  -5.8600000 -24.5590000  10.8230000  -4.9480000 -35.6340000
  11.1270000  -5.8410000 -35.4780000  11.3500000  -4.4080000 -35.0450000
  10.9290000  -4.9930000 -35.5390000  13.4460000 -14.4600000 -35.0580000
  13.5500000 -14.1160000 -34.1710000  13.3160000 -13.6840000 -35.6030000
  13.4430000 -14.3170000 -35.0140000  16.0880000 -13.6120000 -27.7310000
  17.0000000 -13.6010000 -27.4380000  16.0880000 -14.1970000 -28.4890000
  16.2050000 -13.6860000 -27.7900000   5.6750000 -17.2860000 -37.0710000
   6.0170000 -17.2770000 -36.1770000   5.1900000 -16.4640000 -37.1490000
   5.6570000 -17.1790000 -36.9670000   0.8440000 -17.3700000 -27.1670000
   1.6780000 -16.9160000 -27.2910000   0.2560000 -16.9710000 -27.8070000
   0.8760000 -17.2610000 -27.2640000   8.2780000 -12.7750000 -29.4170000
   8.3640000 -13.5590000 -28.8740000   8.7180000 -12.0880000 -28.9170000
   8.3450000 -12.7870000 -29.2840000  16.9400000 -15.1570000 -20.0770000
  16.0410000 -15.4850000 -20.0820000  17.2650000 -15.3340000 -20.9590000
  16.8660000 -15.2220000 -20.1900000  16.9560000  -4.0350000 -34.0810000
  17.0770000  -3.1600000 -34.4490000  17.1650000  -4.6290000 -34.8020000
  16.9980000  -3.9990000 -34.2210000  15.3740000 -18.6360000 -35.2030000
  15.5020000 -17.7210000 -35.4550000  14.4250000 -18.7310000 -35.1180000
  15.2690000 -18.5310000 -35.2240000  18.5490000 -17.2980000 -37.2020000
  18.3730000 -16.4570000 -37.6230000  17.7400000 -17.7970000 -37.3160000
  18.4230000 -17.2540000 -37.2700000  21.1180000 -11.3700000 -29.8240000
  21.1320000 -11.6830000 -28.9190000  21.0690000 -10.4170000 -29.7470000
  21.1140000 -11.2880000 -29.6980000  10.5110000 -13.4340000 -35.9410000
   9.8850000 -14.1580000 -35.9170000  10.7290000 -13.2750000 -35.0230000
  10.4590000 -13.5060000 -35.8210000  16.9770000 -15.9190000 -22.6460000
  16.1110000 -16.0830000 -23.0170000  17.5590000 -16.5110000 -23.1240000
  16.9410000 -16.0160000 -22.7550000  16.6830000 -10.4690000 -35.9400000
  16.2260000 -10.7100000 -35.1340000  17.6090000 -10.6090000 -35.7410000
  16.7430000 -10.5180000 -35.8110000  14.8080000 -14.7520000 -30.3520000
  15.5040000 -15.1380000 -30.8850000  14.1980000 -15.4740000 -30.1970000
  14.8190000 -14.8940000 -30.4010000  16.7960000 -10.0420000 -19.6160000
  15.9730000  -9.7020000 -19.9650000  16.6520000 -10.0980000 -18.6710000
  16.6730000 -10.0060000 -19.5400000  10.7090000 -13.3160000 -33.2770000
   9.8860000 -13.0330000 -32.8810000  11.3870000 -12.9300000 -32.7220000
  10.6910000 -13.2310000 -33.1550000   0.7110000  -6.6490000 -28.9080000
   1.1050000  -6.7190000 -29.7780000   1.3230000  -7.1040000 -28.3310000
   0.8400000  -6.7160000 -28.9460000  15.4320000 -10.9690000 -33.5360000
  15.3890000 -10.3500000 -32.8060000  15.0660000 -11.7800000 -33.1840000
  15.3800000 -10.9930000 -33.3970000  -0.1850000 -10.8570000 -33.2910000
   0.4800000 -10.2570000 -32.9530000  -1.0170000 -10.4230000 -33.1020000
  -0.2060000 -10.7250000 -33.2230000   2.1480000  -6.4120000 -31.0890000
   2.8270000  -6.6920000 -30.4750000   2.2460000  -5.4620000 -31.1380000
   2.2470000  -6.3260000 -31.0160000   7.5620000  -7.6760000 -36.0020000
   7.1790000  -7.9850000 -36.8230000   7.8010000  -6.7650000 -36.1770000
   7.5440000  -7.5990000 -36.1290000   1.8180000 -16.2210000 -30.3240000
   1.5800000 -17.0400000 -30.7580000   1.0570000 -15.6530000 -30.4510000
   1.6900000 -16.2530000 -30.3960000   6.3890000 -17.4060000 -34.3200000
   6.6340000 -18.2810000 -34.0190000   6.1740000 -16.9290000 -33.5190000
   6.3930000 -17.4570000 -34.1790000  11.6210000 -15.6570000 -31.7820000
  11.3270000 -14.9420000 -32.3460000  11.3500000 -15.3960000 -30.9020000
  11.5490000 -15.5320000 -31.7420000  15.5740000  -5.1050000 -30.0810000
  14.6590000  -5.0950000 -30.3640000  15.6960000  -5.9730000 -29.6960000
  15.4720000  -5.2150000 -30.0680000   3.2270000 -13.1410000 -36.2860000
   2.3020000 -13.3840000 -36.2480000   3.2230000 -12.2210000 -36.5510000
   3.1090000 -13.0540000 -36.3150000   5.1960000  -8.7880000 -32.9970000
   6.0190000  -8.3020000 -33.0350000   5.2470000  -9.2830000 -32.1800000
   5.3080000  -8.7890000 -32.8980000   7.4910000  -7.1510000 -32.9950000
   6.9680000  -6.4480000 -32.6090000   7.5030000  -6.9550000 -33.9310000
   7.4260000  -7.0360000 -33.0650000  14.5340000 -12.2840000 -36.8310000
  15.0120000 -12.6370000 -37.5800000  15.0360000 -11.5120000 -36.5680000
  14.6590000 -12.2300000 -36.8930000  16.3860000 -21.2050000 -27.4320000
  16.5320000 -20.7990000 -26.5770000  15.4410000 -21.1360000 -27.5710000
  16.2840000 -21.1440000 -27.3400000   1.9780000  -8.2170000 -18.9780000
   2.7810000  -7.7070000 -19.0880000   1.5280000  -7.7990000 -18.2440000
   2.0230000  -8.0980000 -18.8980000   7.0990000 -12.3230000 -35.9770000
   6.6180000 -13.1400000 -36.1080000   7.5330000 -12.1640000 -36.8150000
   7.0930000 -12.4070000 -36.1010000   1.0630000  -7.2860000 -35.5190000
   1.8300000  -7.6090000 -35.0440000   0.3210000  -7.5250000 -34.9640000
   1.0660000  -7.3580000 -35.3870000  17.1620000  -0.2970000 -27.6500000
  17.0150000  -1.2400000 -27.5690000  17.8160000  -0.0990000 -26.9790000
  17.2270000  -0.3930000 -27.5540000  18.4950000  -4.0190000 -28.8640000
  17.6510000  -3.6060000 -28.6800000  18.3630000  -4.9410000 -28.6460000
  18.3700000  -4.0840000 -28.8130000   0.4010000 -13.5300000 -26.8230000
   1.1990000 -13.8800000 -27.2180000   0.3810000 -13.9100000 -25.9450000
   0.5000000 -13.6240000 -26.7610000   2.4860000  -8.7430000 -28.1100000
   3.4430000  -8.7590000 -28.1290000   2.2410000  -9.5570000 -27.6700000
   2.5770000  -8.8490000 -28.0560000  12.7890000 -14.7330000 -25.5710000
  12.3350000 -14.2910000 -26.2890000  12.2470000 -14.5580000 -24.8020000
  12.6620000 -14.6540000 -25.5650000  17.9540000  -9.8050000 -26.6270000
  17.5650000 -10.2790000 -25.8910000  17.4190000  -9.0160000 -26.7130000
  17.8360000  -9.7650000 -26.5440000  11.3280000 -13.2570000 -27.7610000
  11.9540000 -12.8070000 -28.3280000  11.1860000 -14.1040000 -28.1850000
  11.3900000 -13.3080000 -27.8880000  11.3520000 -16.5120000 -35.0050000
  10.5930000 -16.2640000 -35.5330000  11.9070000 -15.7320000 -35.0040000
  11.3260000 -16.3800000 -35.0720000   3.8870000 -13.2190000 -33.2880000
   3.7970000 -13.4900000 -34.2010000   2.9890000 -13.0620000 -32.9950000
   3.7600000 -13.2330000 -33.3670000  13.4740000 -17.3280000 -30.4920000
  12.8120000 -16.9220000 -31.0520000  14.1690000 -17.5910000 -31.0950000
  13.4780000 -17.3090000 -30.6410000  15.0870000 -12.0960000 -25.1130000
  14.8220000 -12.7480000 -24.4630000  15.3060000 -12.6090000 -25.8910000
  15.0810000 -12.2450000 -25.1290000   5.8330000 -10.3030000 -30.8880000
   6.0210000 -11.0550000 -31.4500000   6.6890000  -9.9120000 -30.7180000
   5.9660000 -10.3490000 -30.9380000   4.4800000 -18.4330000 -28.7290000
   4.6510000 -17.5120000 -28.5300000   5.0460000 -18.9170000 -28.1280000
   4.5740000 -18.3770000 -28.6270000   8.2830000  -5.0960000 -36.6050000
   9.1270000  -5.1340000 -36.1540000   8.5060000  -4.8910000 -37.5130000
   8.4200000  -5.0750000 -36.6630000  16.1400000 -18.5670000 -18.9130000
  15.5990000 -19.0820000 -18.3150000  15.6760000 -17.7340000 -19.0000000
  16.0120000 -18.5260000 -18.8470000  11.6240000  -1.2020000 -37.4480000
  11.7820000  -0.3630000 -37.8810000  11.8860000  -1.0550000 -36.5390000
  11.6780000  -1.0760000 -37.3870000  13.7340000  -2.4250000 -27.3380000
  13.1900000  -1.8250000 -27.8490000  13.3430000  -3.2860000 -27.4840000
  13.6150000  -2.4580000 -27.4220000  17.5090000 -11.0160000 -23.7150000
  16.6130000 -11.3410000 -23.8020000  17.4090000 -10.1210000 -23.3900000
  17.3810000 -10.9430000 -23.6840000   9.7050000  -9.3290000 -35.6770000
  10.4350000  -8.7090000 -35.6880000   8.9230000  -8.7780000 -35.7080000
   9.6980000  -9.1790000 -35.6830000   6.3600000 -15.2110000 -32.5780000
   6.2120000 -14.2680000 -32.6560000   5.5680000 -15.5430000 -32.1540000
   6.2400000 -15.1330000 -32.5340000   5.6160000 -14.7220000 -35.9830000
   4.6990000 -14.9370000 -35.8170000   6.0910000 -15.1100000 -35.2480000
   5.5590000 -14.7990000 -35.8680000   2.2580000  -9.9760000 -22.7120000
   1.5790000  -9.3370000 -22.4920000   1.8490000 -10.8250000 -22.5490000
   2.1180000 -10.0030000 -22.6630000   0.4060000 -17.0670000 -24.1300000
   1.2680000 -17.1060000 -23.7160000   0.5920000 -16.9170000 -25.0570000
   0.5400000 -17.0530000 -24.1960000   1.2210000 -12.9950000 -32.1000000
   1.6210000 -12.4100000 -31.4560000   0.7570000 -12.4100000 -32.6990000
   1.2130000 -12.8450000 -32.0940000  11.5220000 -16.9790000 -20.0630000
  11.5190000 -17.2690000 -20.9750000  10.8500000 -16.2980000 -20.0260000
  11.4350000 -16.9290000 -20.1750000   3.1810000 -18.3160000 -36.0550000
   3.1820000 -17.5740000 -35.4510000   3.6850000 -18.0120000 -36.8090000
   3.2460000 -18.1820000 -36.0740000   4.0970000  -6.2800000 -35.7710000
   4.1830000  -6.3310000 -36.7230000   3.5440000  -5.5120000 -35.6220000
   4.0370000  -6.1880000 -35.8740000  15.5820000 -12.8410000 -20.4340000
  16.2950000 -13.4730000 -20.3390000  16.0220000 -12.0040000 -20.5800000
  15.7290000 -12.8150000 -20.4410000   1.6110000 -11.0590000 -26.9120000
   0.8320000 -10.5530000 -26.6810000   1.3490000 -11.9720000 -26.7890000
   1.4780000 -11.1110000 -26.8670000   0.3380000 -15.8180000 -34.6010000
   0.2810000 -16.0720000 -35.5220000  -0.2100000 -15.0360000 -34.5330000
   0.2610000 -15.7500000 -34.7100000   5.8910000 -18.2450000 -31.1700000
   5.4860000 -18.5760000 -30.3680000   5.9980000 -19.0190000 -31.7220000
   5.8530000 -18.3860000 -31.1380000  16.9760000  -2.7860000 -31.4300000
  17.0460000  -3.4150000 -30.7130000  17.0420000  -3.3180000 -32.2230000
  16.9930000  -2.9340000 -31.4400000   6.4340000 -12.1990000 -33.2840000
   6.8070000 -12.2640000 -34.1630000   5.5290000 -12.4950000 -33.3850000
   6.3660000 -12.2460000 -33.4090000   6.1330000  -5.0420000 -34.8500000
   5.4010000  -5.5310000 -35.2260000   6.7930000  -5.0290000 -35.5420000
   6.1230000  -5.1030000 -34.9860000   8.5790000 -15.3020000 -30.8990000
   7.7270000 -15.4400000 -31.3110000   8.6290000 -14.3550000 -30.7630000
   8.4770000 -15.1980000 -30.9340000   9.6240000 -11.6310000 -37.6600000
   9.6050000 -10.9810000 -36.9580000   9.9790000 -12.4190000 -37.2480000
   9.6670000 -11.6480000 -37.5180000  14.6070000 -16.3810000 -20.2390000
  14.6680000 -16.7280000 -21.1290000  13.6670000 -16.3330000 -20.0650000
  14.4940000 -16.4190000 -20.3310000   9.2970000 -17.1280000 -32.8080000
   9.0720000 -16.3430000 -32.3090000  10.1960000 -16.9760000 -33.1000000
   9.3840000 -17.0080000 -32.7810000  14.7240000 -17.4080000 -27.9380000
  15.5950000 -17.8010000 -27.8810000  14.6250000 -17.1770000 -28.8610000
  14.8230000 -17.4290000 -28.0490000  14.7490000 -13.5430000 -32.6900000
  14.5280000 -13.7930000 -31.7920000  15.5650000 -14.0090000 -32.8730000
  14.8250000 -13.6350000 -32.5980000  12.5950000  -3.7800000 -37.5430000
  12.1950000  -2.9120000 -37.4930000  12.1190000  -4.3010000 -36.8960000
  12.4830000  -3.7350000 -37.4540000   8.5520000 -14.9930000 -27.5230000
   7.7010000 -15.4240000 -27.6100000   8.6510000 -14.8460000 -26.5820000
   8.4550000 -15.0290000 -27.4140000  17.4400000 -13.5190000 -34.8540000
  16.6170000 -14.0060000 -34.9020000  17.1880000 -12.6550000 -34.5260000
  17.3030000 -13.4710000 -34.8180000   0.6240000  -4.4640000 -23.3310000
   0.2420000  -3.6210000 -23.0870000   1.4480000  -4.2380000 -23.7620000
   0.6800000  -4.3270000 -23.3550000   2.5270000 -14.8380000 -27.9090000
   2.4330000 -15.3050000 -28.7390000   3.3500000 -15.1610000 -27.5440000
   2.6200000 -14.9390000 -27.9680000  17.1640000  -8.3490000 -23.0180000
  16.2730000  -8.1330000 -22.7400000  17.4410000  -7.5960000 -23.5400000
  17.0850000  -8.2250000 -23.0490000  16.2320000  -6.3270000 -32.5860000
  16.2540000  -6.2110000 -31.6360000  16.4050000  -5.4540000 -32.9370000
  16.2570000  -6.2000000 -32.5090000  15.6070000  -0.3870000 -32.2790000
  15.3430000  -0.4220000 -33.1980000  16.2290000  -1.1080000 -32.1800000
  15.6530000  -0.4840000 -32.3840000  12.7810000  -0.3910000 -34.7680000
  12.2650000  -1.0760000 -34.3420000  12.2980000   0.4160000 -34.5940000
  12.6530000  -0.3760000 -34.6910000   4.6900000 -15.5800000 -26.6530000
   5.1420000 -16.1590000 -26.0390000   5.2530000 -15.5650000 -27.4260000
   4.8200000 -15.6520000 -26.6730000  12.5180000   1.1520000 -26.4670000
  13.2930000   0.9960000 -27.0060000  12.4870000   2.1030000 -26.3610000
  12.6130000   1.2540000 -26.5220000  14.5910000  -7.3100000 -23.2340000
  13.9810000  -8.0460000 -23.1780000  14.1590000  -6.6860000 -23.8170000
  14.4580000  -7.3250000 -23.3010000   1.8850000  -9.0810000 -32.6240000
   2.8410000  -9.0490000 -32.5970000   1.6140000  -8.1640000 -32.5860000
   1.9730000  -8.9600000 -32.6160000   3.2440000 -15.7910000 -34.6530000
   3.5520000 -15.7260000 -33.7490000   2.3260000 -16.0490000 -34.5740000
   3.1660000 -15.8160000 -34.5270000  12.5530000 -11.5300000 -32.2690000
  13.1730000 -11.0860000 -32.8480000  11.7430000 -11.0260000 -32.3540000
  12.5290000 -11.4080000 -32.3540000  -0.8270000  -5.4780000 -36.3080000
  -0.1990000  -6.0010000 -35.8090000  -0.3330000  -5.1720000 -37.0690000
  -0.6830000  -5.5060000 -36.3410000  13.4460000  -5.4510000 -25.2150000
  13.2730000  -5.5280000 -26.1530000  14.2290000  -4.9040000 -25.1600000
  13.5240000  -5.3910000 -25.3280000   8.2640000  -9.0670000 -30.8960000
   8.7780000  -9.6670000 -31.4360000   7.9900000  -8.3770000 -31.5000000
   8.2940000  -9.0560000 -31.0420000  15.2920000  -0.5000000 -21.6050000
  15.7010000  -0.3280000 -20.7570000  15.0230000  -1.4170000 -21.5600000
  15.3100000  -0.5950000 -21.4910000  14.3060000 -15.8380000 -23.3370000
  14.0190000 -15.0120000 -22.9460000  14.0830000 -15.7540000 -24.2640000
  14.2400000 -15.7210000 -23.4050000  17.9590000  -1.2080000 -34.6070000
  18.5460000  -1.3850000 -35.3420000  17.3680000  -0.5280000 -34.9310000
  17.9580000  -1.1440000 -34.7430000   0.7510000  -1.7120000 -36.8500000
   1.3080000  -2.4710000 -36.6780000   1.3190000  -0.9580000 -36.6940000
   0.8950000  -1.7130000 -36.8080000  17.7990000  -2.8530000 -19.6120000
  17.0270000  -2.8220000 -19.0480000  18.4160000  -2.2430000 -19.2060000
  17.7790000  -2.7710000 -19.4870000  18.3210000 -14.5020000 -30.8510000
  18.9030000 -14.0170000 -31.4370000  17.7550000 -13.8320000 -30.4680000
  18.3230000 -14.3540000 -30.8770000   6.0400000 -15.6830000 -28.9850000
   5.8620000 -15.0930000 -29.7170000   6.5250000 -16.4100000 -29.3750000
   6.0790000 -15.7000000 -29.1280000  16.0140000  -7.9960000 -29.6220000
  16.8670000  -8.3370000 -29.8920000  16.0360000  -8.0250000 -28.6660000
  16.1260000  -8.0440000 -29.5350000  18.0900000 -17.9700000 -30.1140000
  17.4940000 -18.3200000 -29.4520000  18.8080000 -18.6020000 -30.1490000
  18.1060000 -18.0950000 -30.0340000  13.8890000 -13.2390000 -22.4450000
  14.5820000 -13.0450000 -21.8130000  13.2530000 -12.5330000 -22.3270000
  13.8960000 -13.1240000 -22.3490000   6.4660000 -16.2980000 -42.9860000
   6.6940000 -16.3260000 -42.0570000   5.8370000 -17.0100000 -43.0990000
   6.4150000 -16.3930000 -42.8810000   3.8650000  -2.1120000 -42.7260000
   2.9110000  -2.1800000 -42.7580000   4.0540000  -1.8050000 -41.8400000
   3.7670000  -2.0810000 -42.6170000   4.3820000 -18.0120000 -43.4800000
   3.8220000 -17.5640000 -42.8460000   4.2360000 -18.9430000 -43.3130000
   4.2920000 -18.0740000 -43.3780000   8.5960000 -14.5620000 -43.6270000
   7.9930000 -15.2030000 -43.2520000   9.3850000 -14.6310000 -43.0890000
   8.6200000 -14.6520000 -43.5100000   9.1340000 -18.1250000 -37.3490000
  10.0260000 -18.3540000 -37.6130000   8.6120000 -18.2460000 -38.1420000
   9.1820000 -18.1690000 -37.4840000  11.0190000 -14.7360000 -42.3580000
  11.1970000 -15.6180000 -42.0330000  11.3380000 -14.1560000 -41.6670000
  11.0830000 -14.7750000 -42.2280000   8.9090000  -8.5010000 -41.5870000
   8.7810000  -9.3660000 -41.1980000   9.3520000  -8.6760000 -42.4180000
   8.9490000  -8.6340000 -41.6440000   0.0330000 -14.1710000 -43.0300000
   0.3100000 -13.6020000 -42.3120000  -0.5690000 -14.7940000 -42.6230000
  -0.0080000 -14.1780000 -42.8860000   0.9060000  -7.8340000 -40.4370000
  -0.0150000  -8.0540000 -40.5770000   0.9860000  -7.7270000 -39.4900000
   0.7980000  -7.8490000 -40.3340000  12.2860000  -0.8200000 -47.9800000
  12.8720000  -0.0830000 -48.1550000  11.5040000  -0.6340000 -48.4990000
  12.2610000  -0.7020000 -48.0690000   2.7270000 -17.1690000 -41.4420000
   2.9340000 -16.2710000 -41.1850000   2.3710000 -17.5700000 -40.6490000
   2.7080000 -17.1060000 -41.3080000  11.0750000 -12.6800000 -40.4430000
  11.6610000 -12.3670000 -39.7540000  10.3490000 -12.0550000 -40.4430000
  11.0570000 -12.5600000 -40.3550000   5.8090000  -2.5140000 -46.2940000
   5.5480000  -2.8890000 -45.4530000   6.5400000  -3.0590000 -46.5830000
   5.8690000  -2.6320000 -46.2240000   4.0470000  -4.3210000 -47.5790000
   3.3230000  -4.0180000 -48.1270000   4.6410000  -3.5710000 -47.5310000
   4.0310000  -4.1860000 -47.6430000   0.5960000 -14.1670000 -37.3890000
   0.3980000 -14.0860000 -38.3210000  -0.1980000 -13.8640000 -36.9470000
   0.4690000 -14.1180000 -37.4520000   6.6700000 -11.6040000 -45.9660000
   7.5510000 -11.3120000 -45.7330000   6.7560000 -11.9380000 -46.8580000
   6.7940000 -11.6090000 -46.0510000   0.5640000  -5.1410000 -38.6320000
  -0.1980000  -4.5730000 -38.7490000   0.7690000  -5.4510000 -39.5140000
   0.4920000  -5.1080000 -38.7600000   2.6350000  -3.8460000 -37.2950000
   3.1180000  -3.2850000 -37.9020000   2.1920000  -4.4820000 -37.8560000
   2.6400000  -3.8550000 -37.4440000  10.9670000 -15.7850000 -47.7820000
  10.0150000 -15.8480000 -47.7110000  11.2950000 -16.5130000 -47.2540000
  10.8870000 -15.8860000 -47.7050000  16.0960000  -7.7770000 -45.6600000
  16.5360000  -7.2700000 -44.9770000  15.4240000  -8.2740000 -45.1940000
  16.0670000  -7.7760000 -45.5130000  17.3110000  -6.0090000 -43.4320000
  16.5970000  -5.4040000 -43.6310000  18.0270000  -5.4460000 -43.1350000
  17.3120000  -5.8600000 -43.4190000   6.6160000  -8.2560000 -38.5960000
   6.4590000  -9.2000000 -38.6320000   6.5270000  -7.9640000 -39.5030000
   6.5840000  -8.3400000 -38.7170000  16.0880000 -13.6120000 -46.5910000
  17.0000000 -13.6010000 -46.2980000  16.0880000 -14.1970000 -47.3490000
  16.2050000 -13.6860000 -46.6500000  13.9330000  -9.2750000 -44.7400000
  13.0580000  -9.5320000 -45.0300000  14.2850000 -10.0580000 -44.3150000
  13.8660000  -9.4080000 -44.7230000   3.6420000  -2.3590000 -39.5820000
   3.3900000  -1.4550000 -39.3910000   4.5470000  -2.4240000 -39.2790000
   3.7260000  -2.2510000 -39.5190000   0.8440000 -17.3700000 -46.0270000
   1.6780000 -16.9160000 -46.1510000   0.2560000 -16.9710000 -46.6670000
   0.8760000 -17.2610000 -46.1240000   1.9430000 -18.2370000 -39.0150000
   1.1100000 -18.6640000 -38.8140000   1.9100000 -17.4100000 -38.5350000
   1.8320000 -18.1860000 -38.9280000   8.2780000 -12.7750000 -48.2770000
   8.3640000 -13.5590000 -47.7330000   8.7180000 -12.0880000 -47.7770000
   8.3450000 -12.7870000 -48.1440000  16.9400000 -15.1570000 -38.9370000
  16.0410000 -15.4850000 -38.9420000  17.2650000 -15.3340000 -39.8190000
  16.8660000 -15.2220000 -39.0500000  11.4040000  -4.7510000 -39.8070000
  11.9860000  -4.9150000 -39.0660000  10.8110000  -4.0650000 -39.4990000
  11.4020000  -4.6840000 -39.6730000   7.7060000  -4.2870000 -47.0680000
   7.2260000  -5.0950000 -46.8910000   8.4360000  -4.3010000 -46.4490000
   7.7380000  -4.3920000 -46.9660000  21.1180000 -11.3700000 -48.6840000
  21.1320000 -11.6830000 -47.7790000  21.0690000 -10.4170000 -48.6070000
  21.1140000 -11.2880000 -48.5580000   7.2490000 -11.7860000 -42.6810000
   6.4040000 -12.1060000 -42.3640000   7.7220000 -12.5770000 -42.9400000
   7.2010000 -11.9280000 -42.6730000   4.1760000  -6.6000000 -38.3470000
   4.9870000  -7.0880000 -38.4890000   3.9070000  -6.3230000 -39.2230000
   4.2450000  -6.6270000 -38.4780000  16.9770000 -15.9190000 -41.5060000
  16.1110000 -16.0830000 -41.8770000  17.5590000 -16.5110000 -41.9830000
  16.9410000 -16.0160000 -41.6150000   6.4380000  -7.5600000 -41.3190000
   7.3180000  -7.9330000 -41.3710000   5.9000000  -8.1410000 -41.8560000
   6.4820000  -7.6820000 -41.3940000  15.4270000  -3.8490000 -42.9620000
  15.0760000  -3.9520000 -42.0770000  15.5750000  -2.9070000 -43.0520000
  15.4010000  -3.7420000 -42.8600000  17.5640000  -2.0820000 -41.0830000
  17.7620000  -2.4770000 -40.2330000  16.8930000  -1.4270000 -40.8920000
  17.5030000  -2.0490000 -40.9500000  12.8820000  -9.3030000 -41.6700000
  12.3250000  -9.6970000 -42.3420000  12.3060000  -8.6930000 -41.2100000
  12.7370000  -9.2750000 -41.6970000  16.7960000 -10.0420000 -38.4760000
  15.9730000  -9.7020000 -38.8250000  16.6520000 -10.0980000 -37.5310000
  16.6730000 -10.0060000 -38.4000000   3.7210000  -9.7250000 -44.0440000
   3.3440000  -9.8520000 -43.1740000   3.1580000 -10.2360000 -44.6260000
   3.6010000  -9.8060000 -44.0070000  12.7280000  -8.2150000 -48.5890000
  13.2730000  -7.7140000 -47.9820000  12.0340000  -7.6080000 -48.8460000
  12.7090000  -8.0740000 -48.5440000   0.7110000  -6.6490000 -47.7680000
   1.1050000  -6.7190000 -48.6380000   1.3230000  -7.1040000 -47.1900000
   0.8400000  -6.7160000 -47.8060000   3.8690000 -15.2520000 -37.9530000
   3.7160000 -14.9720000 -38.8560000   3.6320000 -14.4920000 -37.4230000
   3.8190000 -15.1190000 -38.0010000  11.3680000  -1.1260000 -42.7990000
  10.8190000  -1.1950000 -43.5790000  11.7320000  -2.0030000 -42.6830000
  11.3450000  -1.2470000 -42.8840000   5.8020000 -11.1310000 -38.8480000
   5.6870000 -11.4150000 -39.7550000   4.9110000 -11.0280000 -38.5150000
   5.6730000 -11.1540000 -38.9220000   4.8470000 -12.8040000 -44.0020000
   4.2570000 -13.5430000 -44.1540000   5.4590000 -12.8320000 -44.7370000
   4.8500000 -12.9020000 -44.1160000   6.2320000  -6.6120000 -45.9700000
   6.1920000  -7.5670000 -46.0070000   5.7770000  -6.3840000 -45.1600000
   6.1690000  -6.7050000 -45.8710000  14.1970000  -9.9590000 -39.2880000
  13.5060000 -10.5990000 -39.1200000  13.9890000  -9.6030000 -40.1510000
  14.0820000  -9.9960000 -39.3770000  10.0750000  -4.0010000 -45.5600000
  10.0110000  -4.5210000 -44.7580000  10.6200000  -3.2520000 -45.3170000
  10.1360000  -3.9720000 -45.4260000   1.8870000  -0.9130000 -47.7810000
   1.3450000  -0.4900000 -47.1140000   2.7860000  -0.7160000 -47.5190000
   1.9320000  -0.8330000 -47.6620000   3.4280000  -6.8480000 -40.8610000
   3.3900000  -6.5310000 -41.7630000   2.5560000  -7.2070000 -40.6960000
   3.3110000  -6.8540000 -40.9550000   7.3360000  -5.1080000 -42.2860000
   6.5530000  -4.7020000 -42.6550000   7.0480000  -5.9790000 -42.0130000
   7.1990000  -5.1680000 -42.2980000   1.0740000  -3.0960000 -45.5430000
   1.7290000  -2.7350000 -46.1400000   0.3960000  -3.4510000 -46.1180000
   1.0710000  -3.0950000 -45.6930000  16.3860000 -21.2050000 -46.2920000
  16.5320000 -20.7990000 -45.4370000  15.4410000 -21.1360000 -46.4310000
  16.2840000 -21.1440000 -46.2000000   6.3620000  -9.1510000 -43.8070000
   6.6870000  -9.9540000 -43.4000000   5.4930000  -9.3830000 -44.1330000
   6.2920000  -9.2830000 -43.7970000   1.9780000  -8.2170000 -37.8380000
   2.7810000  -7.7070000 -37.9470000   1.5280000  -7.7990000 -37.1040000
   2.0230000  -8.0980000 -37.7580000  17.1620000  -0.2970000 -46.5100000
  17.0150000  -1.2400000 -46.4280000  17.8160000  -0.0990000 -45.8390000
  17.2270000  -0.3930000 -46.4140000  18.4950000  -4.0190000 -47.7240000
  17.6510000  -3.6060000 -47.5400000  18.3630000  -4.9410000 -47.5060000
  18.3700000  -4.0840000 -47.6730000   0.4010000 -13.5300000 -45.6830000
   1.1990000 -13.8800000 -46.0780000   0.3810000 -13.9100000 -44.8050000
   0.5000000 -13.6240000 -45.6210000   9.7950000 -10.4730000 -47.9550000
   9.3880000  -9.7130000 -48.3710000  10.6570000 -10.5380000 -48.3650000
   9.8530000 -10.3840000 -48.0610000   2.4860000  -8.7430000 -46.9700000
   3.4430000  -8.7590000 -46.9890000   2.2410000  -9.5570000 -46.5300000
   2.5770000  -8.8490000 -46.9160000  12.7890000 -14.7330000 -44.4310000
  12.3350000 -14.2910000 -45.1490000  12.2470000 -14.5580000 -43.6620000
  12.6620000 -14.6540000 -44.4250000  17.9540000  -9.8050000 -45.4870000
  17.5650000 -10.2790000 -44.7510000  17.4190000  -9.0160000 -45.5730000
  17.8360000  -9.7650000 -45.4040000  11.3280000 -13.2570000 -46.6210000
  11.9540000 -12.8070000 -47.1880000  11.1860000 -14.1040000 -47.0450000
  11.3900000 -13.3080000 -46.7480000   9.8630000  -5.3800000 -43.1220000
  10.2560000  -4.5590000 -42.8260000   8.9500000  -5.3250000 -42.8400000
   9.7970000  -5.2680000 -43.0480000  15.0870000 -12.0960000 -43.9730000
  14.8220000 -12.7480000 -43.3230000  15.3060000 -12.6090000 -44.7510000
  15.0810000 -12.2450000 -43.9890000   7.4890000 -15.4430000 -40.5080000
   8.4110000 -15.3670000 -40.2640000   7.0370000 -14.8260000 -39.9330000
   7.5490000 -15.3550000 -40.4040000   4.4800000 -18.4330000 -47.5890000
   4.6510000 -17.5120000 -47.3900000   5.0460000 -18.9170000 -46.9880000
   4.5740000 -18.3770000 -47.4870000   5.3340000  -9.3060000 -47.1960000
   5.5910000  -9.7240000 -48.0180000   5.4180000  -9.9980000 -46.5400000
   5.3780000  -9.4480000 -47.2170000  12.6460000  -4.8510000 -46.7370000
  12.7440000  -4.6040000 -47.6570000  11.7920000  -4.5010000 -46.4850000
  12.5490000  -4.7750000 -46.8220000  16.1400000 -18.5670000 -37.7730000
  15.5990000 -19.0820000 -37.1750000  15.6760000 -17.7340000 -37.8600000
  16.0120000 -18.5260000 -37.7070000  13.7340000  -2.4250000 -46.1980000
  13.1900000  -1.8250000 -46.7090000  13.3430000  -3.2860000 -46.3440000
  13.6150000  -2.4580000 -46.2820000  17.5090000 -11.0160000 -42.5750000
  16.6130000 -11.3410000 -42.6620000  17.4090000 -10.1210000 -42.2500000
  17.3810000 -10.9430000 -42.5440000   7.8260000  -0.0570000 -47.2250000
   7.7920000  -0.7440000 -46.5600000   8.3020000  -0.4520000 -47.9550000
   7.8820000  -0.1950000 -47.2330000   9.3370000 -11.9480000 -45.4210000
   8.8880000 -12.7020000 -45.0390000  10.0590000 -12.3280000 -45.9210000
   9.3720000 -12.0930000 -45.4360000  10.8720000  -7.8240000 -43.7090000
  10.5960000  -7.0000000 -43.3070000  11.8230000  -7.8370000 -43.6000000
  10.9590000  -7.7200000 -43.6440000  10.2280000  -0.6010000 -45.4600000
  11.0180000  -0.0630000 -45.5140000   9.6280000  -0.2090000 -46.0940000
  10.2520000  -0.4820000 -45.5480000  10.0110000 -14.8670000 -39.0190000
   9.5450000 -14.2690000 -38.4350000  10.6060000 -14.3030000 -39.5140000
  10.0270000 -14.7190000 -39.0080000   2.2580000  -9.9760000 -41.5720000
   1.5790000  -9.3370000 -41.3520000   1.8490000 -10.8250000 -41.4090000
   2.1180000 -10.0030000 -41.5230000   0.4060000 -17.0670000 -42.9900000
   1.2680000 -17.1060000 -42.5760000   0.5920000 -16.9170000 -43.9170000
   0.5400000 -17.0530000 -43.0560000  11.3230000  -9.5340000 -45.6230000
  11.0550000  -8.8910000 -44.9650000  10.5240000  -9.7160000 -46.1190000
  11.1860000  -9.4750000 -45.6030000  -0.1350000 -11.8960000 -39.0030000
  -0.7350000 -11.1630000 -38.8620000   0.4120000 -11.9130000 -38.2170000
  -0.1420000 -11.8040000 -38.8840000  11.3000000 -11.2000000 -43.0610000
  11.1370000 -10.8910000 -43.9520000  10.4390000 -11.4640000 -42.7380000
  11.1690000 -11.1940000 -43.1330000  11.5220000 -16.9790000 -38.9230000
  11.5190000 -17.2690000 -39.8350000  10.8500000 -16.2980000 -38.8860000
  11.4350000 -16.9290000 -39.0350000  11.2320000  -7.5370000 -40.5250000
  10.4140000  -7.6930000 -40.9960000  11.2800000  -6.5850000 -40.4360000
  11.1340000  -7.4350000 -40.5740000  15.5820000 -12.8410000 -39.2940000
  16.2950000 -13.4730000 -39.1990000  16.0220000 -12.0040000 -39.4400000
  15.7290000 -12.8150000 -39.3010000   1.6110000 -11.0590000 -45.7720000
   0.8320000 -10.5530000 -45.5410000   1.3490000 -11.9720000 -45.6490000
   1.4780000 -11.1110000 -45.7270000  17.0550000  -1.5640000 -43.7250000
  17.3370000  -1.6600000 -42.8150000  16.2740000  -1.0130000 -43.6760000
  16.9910000  -1.5060000 -43.6020000   4.7070000  -6.9020000 -48.6660000
   4.6200000  -6.1220000 -48.1170000   4.7790000  -7.6260000 -48.0430000
   4.7050000  -6.8950000 -48.5160000   4.8090000 -11.7610000 -41.4820000
   4.7180000 -11.8810000 -42.4270000   4.0850000 -11.1830000 -41.2440000
   4.7050000 -11.7020000 -41.5730000   1.0790000  -1.6970000 -43.1390000
   0.7860000  -1.9700000 -44.0090000   0.7710000  -0.7950000 -43.0550000
   1.0020000  -1.6170000 -43.2400000   3.4510000 -14.6340000 -40.5680000
   4.2420000 -14.6010000 -41.1050000   3.0910000 -13.7480000 -40.6160000
   3.5060000 -14.5170000 -40.6430000   4.9940000  -4.3330000 -43.7410000
   4.4240000  -3.6460000 -43.3940000   4.5420000  -5.1490000 -43.5270000
   4.8630000  -4.3490000 -43.6690000  14.7240000 -17.4080000 -46.7980000
  15.5950000 -17.8010000 -46.7410000  14.6250000 -17.1770000 -47.7210000
  14.8230000 -17.4290000 -46.9090000  11.6320000 -17.1410000 -41.6640000
  11.3720000 -17.9170000 -42.1610000  12.5880000 -17.1360000 -41.7120000
  11.7210000 -17.2400000 -41.7330000   8.5520000 -14.9930000 -46.3830000
   7.7010000 -15.4240000 -46.4700000   8.6510000 -14.8460000 -45.4420000
   8.4550000 -15.0290000 -46.2740000   7.1830000 -17.9720000 -39.2320000
   6.6300000 -17.6610000 -38.5160000   7.2440000 -17.2260000 -39.8290000
   7.1200000 -17.8370000 -39.2170000  11.8520000  -3.7880000 -42.3420000
  11.6490000  -4.0980000 -41.4600000  12.3660000  -4.4960000 -42.7320000
  11.8920000  -3.9190000 -42.2790000  14.4970000  -6.1860000 -39.6950000
  13.8570000  -6.7190000 -39.2230000  14.4590000  -6.5090000 -40.5960000
  14.4100000  -6.2960000 -39.7500000   8.2640000  -3.8180000 -39.5600000
   7.8770000  -4.1830000 -40.3560000   7.6160000  -3.1890000 -39.2450000
   8.1310000  -3.7850000 -39.6210000   0.6240000  -4.4640000 -42.1900000
   0.2420000  -3.6210000 -41.9470000   1.4480000  -4.2380000 -42.6220000
   0.6800000  -4.3270000 -42.2150000   2.5270000 -14.8380000 -46.7690000
   2.4330000 -15.3050000 -47.5990000   3.3500000 -15.1610000 -46.4040000
   2.6200000 -14.9390000 -46.8280000  17.1640000  -8.3490000 -41.8780000
  16.2730000  -8.1330000 -41.6000000  17.4410000  -7.5960000 -42.4000000
  17.0850000  -8.2250000 -41.9090000   4.6900000 -15.5800000 -45.5130000
   5.1420000 -16.1590000 -44.8990000   5.2530000 -15.5650000 -46.2860000
   4.8200000 -15.6520000 -45.5330000   1.2720000 -12.4800000 -41.2440000
   0.7060000 -12.1190000 -41.9260000   0.7760000 -12.3640000 -40.4340000
   1.1360000 -12.4190000 -41.2280000  12.5180000   1.1520000 -45.3270000
  13.2930000   0.9960000 -45.8660000  12.4870000   2.1030000 -45.2210000
  12.6130000   1.2540000 -45.3820000  14.2810000  -3.0160000 -39.7910000
  14.5510000  -3.9200000 -39.6310000  13.3290000  -3.0290000 -39.6900000
  14.1940000  -3.1330000 -39.7570000  14.5910000  -7.3100000 -42.0940000
  13.9810000  -8.0460000 -42.0380000  14.1590000  -6.6860000 -42.6770000
  14.4580000  -7.3250000 -42.1610000   3.6890000  -6.7220000 -43.6690000
   3.2280000  -6.3780000 -44.4340000   3.7700000  -7.6600000 -43.8400000
   3.6400000  -6.7980000 -43.7890000   6.7250000 -13.6220000 -38.5410000
   5.9600000 -14.0190000 -38.1230000   6.4710000 -12.7110000 -38.6890000
   6.5940000 -13.5560000 -38.5060000  13.4460000  -5.4510000 -44.0750000
  13.2730000  -5.5280000 -45.0130000  14.2290000  -4.9040000 -44.0200000
  13.5240000  -5.3910000 -44.1880000  15.2920000  -0.5000000 -40.4650000
  15.7010000  -0.3280000 -39.6170000  15.0230000  -1.4170000 -40.4200000
  15.3100000  -0.5950000 -40.3510000  14.3060000 -15.8380000 -42.1970000
  14.0190000 -15.0120000 -41.8060000  14.0830000 -15.7540000 -43.1240000
  14.2400000 -15.7210000 -42.2650000  17.7990000  -2.8530000 -38.4720000
  17.0270000  -2.8220000 -37.9080000  18.4160000  -2.2430000 -38.0660000
  17.7790000  -2.7710000 -38.3470000  12.7000000  -7.7260000 -38.4030000
  11.8890000  -7.6880000 -38.9100000  13.0640000  -8.5890000 -38.5980000
  12.6430000  -7.8310000 -38.4930000   6.0400000 -15.6830000 -47.8450000
   5.8620000 -15.0930000 -48.5770000   6.5250000 -16.4100000 -48.2350000
   6.0790000 -15.7000000 -47.9880000   2.3260000  -5.5860000 -45.4630000
   2.5850000  -4.8930000 -46.0710000   1.4540000  -5.3270000 -45.1640000
   2.2480000  -5.4640000 -45.5030000  16.0140000  -7.9960000 -48.4820000
  16.8670000  -8.3370000 -48.7520000  16.0360000  -8.0250000 -47.5260000
  16.1260000  -8.0440000 -48.3950000   8.9440000 -11.0850000 -40.5770000
   8.1900000 -11.4150000 -41.0650000   8.7430000 -11.2830000 -39.6630000
   8.8220000 -11.1530000 -40.5230000  12.4940000 -11.7620000 -38.5080000
  11.7100000 -11.8010000 -37.9600000  13.1310000 -12.3130000 -38.0540000
  12.4750000 -11.8370000 -38.3800000  18.0900000 -17.9700000 -48.9740000
  17.4940000 -18.3200000 -48.3120000  18.8080000 -18.6020000 -49.0090000
  18.1060000 -18.0950000 -48.8940000  13.8890000 -13.2390000 -41.3050000
  14.5820000 -13.0450000 -40.6730000  13.2530000 -12.5330000 -41.1870000
  13.8960000 -13.1240000 -41.2090000  14.3540000  -0.9690000 -43.8300000
  13.8810000  -0.1360000 -43.8370000  13.8230000  -1.5500000 -44.3740000
  14.2250000  -0.9370000 -43.9000000   8.6300000 -23.5350000  44.7380000
   8.4560000 -23.3740000  45.6650000   7.8650000 -24.0210000  44.4320000
   8.5100000 -23.5770000  44.8180000   5.2010000 -28.6380000  40.0680000
   5.0470000 -28.1810000  40.8950000   5.9130000 -29.2480000  40.2600000
   5.2720000 -28.6580000  40.1980000  15.3620000 -22.4800000  38.2550000
  14.5000000 -22.1510000  37.9980000  15.2660000 -23.4310000  38.2530000
  15.2390000 -22.5590000  38.2220000   2.0880000 -22.3820000  45.0320000
   2.1260000 -21.4890000  44.6870000   1.2890000 -22.4030000  45.5580000
   1.9910000 -22.2700000  45.0550000   6.7990000 -20.5920000  41.7200000
   6.0000000 -21.1190000  41.7300000   7.1430000 -20.6950000  40.8330000
   6.7410000 -20.6730000  41.6080000  10.7070000 -25.6070000  44.1870000
  10.2810000 -26.2140000  43.5830000  10.0440000 -24.9400000  44.3650000
  10.5680000 -25.5990000  44.1330000  17.5780000 -30.6840000  45.2820000
  16.7990000 -30.5740000  45.8270000  17.9220000 -29.7980000  45.1720000
  17.5220000 -30.5570000  45.3370000  11.7850000 -26.4160000  39.7320000
  12.5550000 -26.3950000  40.2990000  12.1040000 -26.7840000  38.9090000
  11.9240000 -26.4600000  39.6990000  17.5210000 -26.7800000  41.4630000
  17.1550000 -26.1380000  42.0730000  16.7560000 -27.2010000  41.0700000
  17.3760000 -26.7510000  41.4900000  15.5030000 -25.1790000  38.4800000
  15.5450000 -25.3130000  37.5320000  16.3890000 -24.9120000  38.7220000
  15.6220000 -25.1620000  38.3890000  12.4960000 -23.0120000  45.0680000
  12.6720000 -22.1620000  44.6650000  11.7370000 -23.3490000  44.5940000
  12.4220000 -22.9460000  44.9570000  12.2860000 -19.6870000  46.3200000
  12.8720000 -18.9500000  46.1450000  11.5040000 -19.5010000  45.8020000
  12.2610000 -19.5690000  46.2320000   8.6950000 -31.0460000  43.3890000
   7.8700000 -31.0650000  42.9040000   8.4440000 -31.2320000  44.2940000
   8.5570000 -31.0720000  43.4430000   5.8090000 -21.3810000  48.0070000
   5.5480000 -21.7560000  48.8480000   6.5400000 -21.9260000  47.7180000
   5.8690000 -21.4990000  48.0770000   4.0470000 -23.1880000  46.7220000
   3.3230000 -22.8850000  46.1730000   4.6410000 -22.4380000  46.7690000
   4.0310000 -23.0530000  46.6570000   3.5200000 -29.4240000  38.0590000
   2.9170000 -28.6870000  37.9640000   4.1490000 -29.1350000  38.7200000
   3.5230000 -29.2930000  38.1320000   7.9470000 -20.9620000  39.3520000
   8.4060000 -21.7840000  39.5240000   8.6450000 -20.3220000  39.2140000
   8.0950000 -20.9850000  39.3570000   6.6700000 -30.4710000  48.3340000
   7.5510000 -30.1800000  48.5670000   6.7560000 -30.8050000  47.4420000
   6.7940000 -30.4760000  48.2500000  16.0960000 -26.6440000  48.6400000
  16.5360000 -26.1370000  49.3230000  15.4240000 -27.1410000  49.1070000
  16.0670000 -26.6430000  48.7870000  10.8230000 -23.8150000  39.8070000
  11.1270000 -24.7080000  39.9630000  11.3500000 -23.2750000  40.3950000
  10.9290000 -23.8600000  39.9010000  16.9560000 -22.9030000  41.3600000
  17.0770000 -22.0280000  40.9920000  17.1650000 -23.4960000  40.6380000
  16.9980000 -22.8660000  41.2190000   1.3530000 -19.4200000  42.5430000
   0.5720000 -19.5520000  42.0050000   1.3230000 -18.4950000  42.7870000
   1.2490000 -19.3180000  42.5050000   7.7060000 -23.1550000  47.2320000
   7.2260000 -23.9620000  47.4090000   8.4360000 -23.1680000  47.8520000
   7.7380000 -23.2600000  47.3340000  21.1180000 -30.2370000  45.6170000
  21.1320000 -30.5500000  46.5220000  21.0690000 -29.2840000  45.6930000
  21.1140000 -30.1550000  45.7430000   3.0840000 -20.8950000  41.0770000
   2.5020000 -20.3970000  41.6500000   3.3130000 -20.2840000  40.3760000
   3.0390000 -20.7530000  41.0600000  16.6830000 -29.3360000  39.5000000
  16.2260000 -29.5770000  40.3070000  17.6090000 -29.4760000  39.6990000
  16.7430000 -29.3850000  39.6300000  12.7280000 -27.0820000  45.7120000
  13.2730000 -26.5810000  46.3180000  12.0340000 -26.4750000  45.4550000
  12.7090000 -26.9410000  45.7570000   0.7110000 -25.5160000  46.5320000
   1.1050000 -25.5860000  45.6620000   1.3230000 -25.9710000  47.1100000
   0.8400000 -25.5830000  46.4940000  15.4320000 -29.8360000  41.9040000
  15.3890000 -29.2170000  42.6350000  15.0660000 -30.6470000  42.2570000
  15.3800000 -29.8600000  42.0430000  10.1820000 -28.9720000  42.3830000
   9.5100000 -29.6530000  42.4130000  10.2610000 -28.7550000  41.4550000
  10.1060000 -29.0310000  42.2680000   6.2320000 -25.4800000  48.3300000
   6.1920000 -26.4350000  48.2930000   5.7770000 -25.2510000  49.1400000
   6.1690000 -25.5720000  48.4300000  -0.1850000 -29.7240000  42.1500000
   0.4800000 -29.1240000  42.4880000  -1.0170000 -29.2900000  42.3390000
  -0.2060000 -29.5920000  42.2180000   2.1480000 -25.2800000  44.3520000
   2.8270000 -25.5590000  44.9650000   2.2460000 -24.3300000  44.3030000
   2.2470000 -25.1930000  44.4250000   7.5620000 -26.5430000  39.4390000
   7.1790000 -26.8530000  38.6170000   7.8010000 -25.6320000  39.2630000
   7.5440000 -26.4660000  39.3120000  15.5740000 -23.9720000  45.3600000
  14.6590000 -23.9620000  45.0770000  15.6960000 -24.8400000  45.7440000
  15.4720000 -24.0820000  45.3730000   5.1960000 -27.6550000  42.4430000
   6.0190000 -27.1690000  42.4050000   5.2470000 -28.1500000  43.2600000
   5.3080000 -27.6560000  42.5430000   1.8870000 -19.7800000  46.5190000
   1.3450000 -19.3570000  47.1870000   2.7860000 -19.5830000  46.7820000
   1.9320000 -19.7000000  46.6380000   7.4910000 -26.0180000  42.4450000
   6.9680000 -25.3150000  42.8320000   7.5030000 -25.8220000  41.5100000
   7.4260000 -25.9030000  42.3750000  14.5340000 -31.1510000  38.6100000
  15.0120000 -31.5050000  37.8610000  15.0360000 -30.3800000  38.8720000
  14.6590000 -31.0970000  38.5470000   1.0740000 -21.9630000  48.7570000
   1.7290000 -21.6020000  48.1600000   0.3960000 -22.3180000  48.1830000
   1.0710000 -21.9620000  48.6070000  12.4740000 -29.9360000  45.7230000
  12.9720000 -30.1430000  44.9320000  12.6580000 -29.0110000  45.8870000
  12.5610000 -29.8440000  45.6420000   1.0630000 -26.1530000  39.9210000
   1.8300000 -26.4760000  40.3970000   0.3210000 -26.3920000  40.4760000
   1.0660000 -26.2250000  40.0530000  17.1620000 -19.1650000  47.7900000
  17.0150000 -20.1070000  47.8720000  17.8160000 -18.9660000  48.4620000
  17.2270000 -19.2600000  47.8870000  18.4950000 -22.8860000  46.5770000
  17.6510000 -22.4730000  46.7600000  18.3630000 -23.8080000  46.7940000
  18.3700000 -22.9510000  46.6280000   9.7950000 -29.3400000  46.3450000
   9.3880000 -28.5800000  45.9300000  10.6570000 -29.4050000  45.9350000
   9.8530000 -29.2510000  46.2390000  14.3320000 -28.1010000  43.8270000
  15.0060000 -27.6900000  44.3680000  13.5220000 -27.6550000  44.0730000
  14.3150000 -27.9910000  43.9280000   2.4860000 -27.6100000  47.3300000
   3.4430000 -27.6260000  47.3120000   2.2410000 -28.4240000  47.7700000
   2.5770000 -27.7160000  47.3850000   5.8330000 -29.1700000  44.5530000
   6.0210000 -29.9220000  43.9900000   6.6890000 -28.7800000  44.7230000
   5.9660000 -29.2160000  44.5030000   8.2830000 -23.9630000  38.8360000
   9.1270000 -24.0010000  39.2870000   8.5060000 -23.7580000  37.9280000
   8.4200000 -23.9420000  38.7780000   5.3340000 -28.1730000  47.1050000
   5.5910000 -28.5910000  46.2820000   5.4180000 -28.8650000  47.7600000
   5.3780000 -28.3150000  47.0830000  12.6460000 -23.7180000  47.5640000
  12.7440000 -23.4710000  46.6430000  11.7920000 -23.3680000  47.8150000
  12.5490000 -23.6420000  47.4780000  10.0360000 -19.3040000  44.9030000
   9.8510000 -20.1310000  44.4570000   9.7240000 -18.6310000  44.2970000
   9.9720000 -19.3240000  44.7670000  11.6240000 -20.0690000  37.9920000
  11.7820000 -19.2300000  37.5590000  11.8860000 -19.9220000  38.9010000
  11.6780000 -19.9430000  38.0530000  13.7340000 -21.2920000  48.1020000
  13.1900000 -20.6920000  47.5920000  13.3430000 -22.1530000  47.9570000
  13.6150000 -21.3250000  48.0180000   7.8260000 -18.9240000  47.0760000
   7.7920000 -19.6110000  47.7400000   8.3020000 -19.3190000  46.3450000
   7.8820000 -19.0620000  47.0680000   9.7050000 -28.1960000  39.7630000
  10.4350000 -27.5760000  39.7530000   8.9230000 -27.6450000  39.7320000
   9.6980000 -28.0460000  39.7570000   9.3370000 -30.8150000  48.8800000
   8.8880000 -31.5690000  49.2620000  10.0590000 -31.1950000  48.3800000
   9.3720000 -30.9600000  48.8640000  10.2280000 -19.4680000  48.8400000
  11.0180000 -18.9300000  48.7870000   9.6280000 -19.0760000  48.2070000
  10.2520000 -19.3490000  48.7530000  13.2180000 -20.8380000  43.6930000
  12.8500000 -20.2570000  44.3570000  14.1090000 -20.5150000  43.5580000
  13.2850000 -20.7220000  43.7600000  11.3230000 -28.4010000  48.6780000
  11.0550000 -27.7580000  49.3350000  10.5240000 -28.5830000  48.1820000
  11.1860000 -28.3420000  48.6980000   4.0970000 -25.1470000  39.6690000
   4.1830000 -25.1980000  38.7170000   3.5440000 -24.3790000  39.8180000
   4.0370000 -25.0550000  39.5670000   1.6110000 -29.9260000  48.5280000
   0.8320000 -29.4200000  48.7600000   1.3490000 -30.8390000  48.6520000
   1.4780000 -29.9780000  48.5730000   4.7070000 -25.7690000  45.6350000
   4.6200000 -24.9890000  46.1830000   4.7790000 -26.4930000  46.2570000
   4.7050000 -25.7620000  45.7840000  16.9760000 -21.6530000  44.0100000
  17.0460000 -22.2820000  44.7270000  17.0420000 -22.1850000  43.2180000
  16.9930000 -21.8010000  44.0000000   6.4340000 -31.0660000  42.1570000
   6.8070000 -31.1310000  41.2780000   5.5290000 -31.3620000  42.0550000
   6.3660000 -31.1130000  42.0320000   6.1330000 -23.9090000  40.5910000
   5.4010000 -24.3980000  40.2140000   6.7930000 -23.8960000  39.8980000
   6.1230000 -23.9700000  40.4550000   9.6240000 -30.4980000  37.7800000
   9.6050000 -29.8480000  38.4820000   9.9790000 -31.2860000  38.1920000
   9.6670000 -30.5150000  37.9220000  11.5860000 -21.6190000  41.6500000
  10.9010000 -21.6910000  42.3150000  12.3840000 -21.4410000  42.1470000
  11.6000000 -21.6060000  41.8000000  12.5950000 -22.6470000  37.8970000
  12.1950000 -21.7800000  37.9470000  12.1190000 -23.1680000  38.5440000
  12.4830000 -22.6020000  37.9860000   5.9740000 -24.3260000  43.7530000
   5.3380000 -24.7810000  44.3050000   5.4860000 -23.5920000  43.3800000
   5.8310000 -24.2900000  43.7770000  16.2320000 -25.1940000  42.8550000
  16.2540000 -25.0780000  43.8050000  16.4050000 -24.3210000  42.5030000
  16.2570000 -25.0670000  42.9320000  15.6070000 -19.2540000  43.1620000
  15.3430000 -19.2900000  42.2430000  16.2290000 -19.9750000  43.2600000
  15.6530000 -19.3510000  43.0570000  12.7810000 -19.2580000  40.6720000
  12.2650000 -19.9430000  41.0980000  12.2980000 -18.4510000  40.8460000
  12.6530000 -19.2430000  40.7500000  12.5180000 -17.7150000  48.9730000
  13.2930000 -17.8710000  48.4340000  12.4870000 -16.7640000  49.0800000
  12.6130000 -17.6130000  48.9180000   9.0880000 -21.3030000  43.2020000
   8.8500000 -22.1160000  43.6470000   8.2830000 -21.0250000  42.7650000
   8.9550000 -21.3710000  43.2030000   1.8850000 -27.9480000  42.8170000
   2.8410000 -27.9160000  42.8430000   1.6140000 -27.0310000  42.8550000
   1.9730000 -27.8270000  42.8250000  12.5530000 -30.3970000  43.1720000
  13.1730000 -29.9530000  42.5930000  11.7430000 -29.8930000  43.0870000
  12.5290000 -30.2750000  43.0870000  -0.8270000 -24.3450000  39.1320000
  -0.1990000 -24.8680000  39.6320000  -0.3330000 -24.0400000  38.3710000
  -0.6830000 -24.3730000  39.1000000   4.8450000 -22.2610000  42.4030000
   4.1450000 -21.8630000  41.8860000   5.2770000 -22.8640000  41.7970000
   4.8110000 -22.2870000  42.2600000   8.2640000 -27.9350000  44.5440000
   8.7780000 -28.5340000  44.0050000   7.9900000 -27.2440000  43.9400000
   8.2940000 -27.9230000  44.3980000  17.9590000 -20.0750000  40.8330000
  18.5460000 -20.2520000  40.0980000  17.3680000 -19.3950000  40.5100000
  17.9580000 -20.0110000  40.6970000   0.7510000 -20.5800000  38.5910000
   1.3080000 -21.3380000  38.7620000   1.3190000 -19.8250000  38.7460000
   0.8950000 -20.5800000  38.6320000  -0.3550000 -27.9600000  45.0320000
   0.2420000 -27.7050000  44.3280000  -0.0520000 -27.4650000  45.7940000
  -0.2400000 -27.8650000  45.0400000   2.3260000 -24.4530000  48.8370000
   2.5850000 -23.7600000  48.2300000   1.4540000 -24.1940000  49.1370000
   2.2480000 -24.3310000  48.7970000  16.0140000 -26.8630000  45.8180000
  16.8670000 -27.2050000  45.5480000  16.0360000 -26.8920000  46.7750000
  16.1260000 -26.9110000  45.9050000  14.1600000 -26.1920000  41.0330000
  14.5560000 -25.8510000  41.8350000  14.6510000 -25.7730000  40.3270000
  14.2730000 -26.0950000  41.0460000   3.8650000 -20.9800000  32.7140000
   2.9110000 -21.0470000  32.6820000   4.0540000 -20.6720000  33.6000000
   3.7670000 -20.9480000  32.8230000   8.6300000 -23.5350000  25.8770000
   8.4560000 -23.3740000  26.8050000   7.8650000 -24.0210000  25.5710000
   8.5100000 -23.5770000  25.9570000   5.2010000 -28.6380000  21.2080000
   5.0470000 -28.1810000  22.0350000   5.9130000 -29.2480000  21.4000000
   5.2720000 -28.6580000  21.3380000  15.3620000 -22.4800000  19.3940000
  14.5000000 -22.1510000  19.1380000  15.2660000 -23.4310000  19.3930000
  15.2390000 -22.5590000  19.3610000   2.0880000 -22.3820000  26.1710000
   2.1260000 -21.4890000  25.8270000   1.2890000 -22.4030000  26.6970000
   1.9910000 -22.2700000  26.1940000   6.7990000 -20.5920000  22.8600000
   6.0000000 -21.1190000  22.8700000   7.1430000 -20.6950000  21.9730000
   6.7410000 -20.6730000  22.7480000  10.7070000 -25.6070000  25.3270000
  10.2810000 -26.2140000  24.7230000  10.0440000 -24.9400000  25.5050000
  10.5680000 -25.5990000  25.2730000  17.5780000 -30.6840000  26.4210000
  16.7990000 -30.5740000  26.9660000  17.9220000 -29.7980000  26.3120000
  17.5220000 -30.5570000  26.4770000   8.9090000 -27.3680000  33.8530000
   8.7810000 -28.2340000  34.2420000   9.3520000 -27.5430000  33.0220000
   8.9490000 -27.5010000  33.7960000  11.7850000 -26.4160000  20.8720000
  12.5550000 -26.3950000  21.4390000  12.1040000 -26.7840000  20.0480000
  11.9240000 -26.4600000  20.8390000  17.5210000 -26.7800000  22.6020000
  17.1550000 -26.1380000  23.2120000  16.7560000 -27.2010000  22.2100000
  17.3760000 -26.7510000  22.6300000  15.5030000 -25.1790000  19.6190000
  15.5450000 -25.3130000  18.6720000  16.3890000 -24.9120000  19.8620000
  15.6220000 -25.1620000  19.5290000   0.9060000 -26.7010000  35.0030000
  -0.0150000 -26.9210000  34.8630000   0.9860000 -26.5940000  35.9500000
   0.7980000 -26.7160000  35.1060000  12.4960000 -23.0120000  26.2080000
  12.6720000 -22.1620000  25.8050000  11.7370000 -23.3490000  25.7340000
  12.4220000 -22.9460000  26.0960000  12.2860000 -19.6870000  27.4600000
  12.8720000 -18.9500000  27.2850000  11.5040000 -19.5010000  26.9410000
  12.2610000 -19.5690000  27.3710000  11.0750000 -31.5470000  34.9970000
  11.6610000 -31.2340000  35.6860000  10.3490000 -30.9220000  34.9970000
  11.0570000 -31.4280000  35.0850000   8.6950000 -31.0460000  24.5290000
   7.8700000 -31.0650000  24.0440000   8.4440000 -31.2320000  25.4340000
   8.5570000 -31.0720000  24.5830000   5.8090000 -21.3810000  29.1460000
   5.5480000 -21.7560000  29.9870000   6.5400000 -21.9260000  28.8570000
   5.8690000 -21.4990000  29.2160000   4.0470000 -23.1880000  27.8610000
   3.3230000 -22.8850000  27.3130000   4.6410000 -22.4380000  27.9090000
   4.0310000 -23.0530000  27.7970000   3.5200000 -29.4240000  19.1990000
   2.9170000 -28.6870000  19.1030000   4.1490000 -29.1350000  19.8600000
   3.5230000 -29.2930000  19.2710000   7.9470000 -20.9620000  20.4920000
   8.4060000 -21.7840000  20.6640000   8.6450000 -20.3220000  20.3530000
   8.0950000 -20.9850000  20.4960000   6.6700000 -30.4710000  29.4740000
   7.5510000 -30.1800000  29.7060000   6.7560000 -30.8050000  28.5810000
   6.7940000 -30.4760000  29.3890000   0.5640000 -24.0080000  36.8080000
  -0.1980000 -23.4400000  36.6910000   0.7690000 -24.3180000  35.9260000
   0.4920000 -23.9750000  36.6800000   2.6350000 -22.7130000  38.1450000
   3.1180000 -22.1530000  37.5380000   2.1920000 -23.3490000  37.5840000
   2.6400000 -22.7220000  37.9960000   6.2610000 -20.9770000  36.9430000
   6.8350000 -21.0640000  37.7040000   6.2190000 -20.0350000  36.7820000
   6.3290000 -20.8680000  37.0190000  16.0960000 -26.6440000  29.7800000
  16.5360000 -26.1370000  30.4630000  15.4240000 -27.1410000  30.2460000
  16.0670000 -26.6430000  29.9270000  17.3110000 -24.8760000  32.0080000
  16.5970000 -24.2710000  31.8090000  18.0270000 -24.3130000  32.3050000
  17.3120000 -24.7270000  32.0210000   6.6160000 -27.1230000  36.8440000
   6.4590000 -28.0670000  36.8080000   6.5270000 -26.8310000  35.9370000
   6.5840000 -27.2070000  36.7230000  10.8230000 -23.8150000  20.9460000
  11.1270000 -24.7080000  21.1020000  11.3500000 -23.2750000  21.5350000
  10.9290000 -23.8600000  21.0410000  13.9330000 -28.1420000  30.7000000
  13.0580000 -28.3990000  30.4100000  14.2850000 -28.9250000  31.1240000
  13.8660000 -28.2750000  30.7170000   3.6420000 -21.2260000  35.8580000
   3.3900000 -20.3220000  36.0490000   4.5470000 -21.2910000  36.1610000
   3.7260000 -21.1180000  35.9210000  16.9560000 -22.9030000  22.4990000
  17.0770000 -22.0280000  22.1310000  17.1650000 -23.4960000  21.7780000
  16.9980000 -22.8660000  22.3590000   1.3530000 -19.4200000  23.6820000
   0.5720000 -19.5520000  23.1440000   1.3230000 -18.4950000  23.9260000
   1.2490000 -19.3180000  23.6440000  11.4040000 -23.6180000  35.6330000
  11.9860000 -23.7820000  36.3740000  10.8110000 -22.9320000  35.9410000
  11.4020000 -23.5510000  35.7670000   7.7060000 -23.1550000  28.3720000
   7.2260000 -23.9620000  28.5490000   8.4360000 -23.1680000  28.9910000
   7.7380000 -23.2600000  28.4740000  21.1180000 -30.2370000  26.7560000
  21.1320000 -30.5500000  27.6610000  21.0690000 -29.2840000  26.8330000
  21.1140000 -30.1550000  26.8820000   7.2490000 -30.6530000  32.7600000
   6.4040000 -30.9730000  33.0760000   7.7220000 -31.4440000  32.5000000
   7.2010000 -30.7950000  32.7670000   4.1760000 -25.4670000  37.0930000
   4.9870000 -25.9550000  36.9510000   3.9070000 -25.1900000  36.2170000
   4.2450000 -25.4940000  36.9620000   3.0840000 -20.8950000  22.2160000
   2.5020000 -20.3970000  22.7890000   3.3130000 -20.2840000  21.5160000
   3.0390000 -20.7530000  22.2000000  16.6830000 -29.3360000  20.6400000
  16.2260000 -29.5770000  21.4460000  17.6090000 -29.4760000  20.8390000
  16.7430000 -29.3850000  20.7690000   6.4380000 -26.4280000  34.1210000
   7.3180000 -26.8000000  34.0690000   5.9000000 -27.0080000  33.5840000
   6.4820000 -26.5490000  34.0460000  15.4270000 -22.7160000  32.4780000
  15.0760000 -22.8190000  33.3630000  15.5750000 -21.7740000  32.3880000
  15.4010000 -22.6090000  32.5800000  17.5640000 -20.9490000  34.3570000
  17.7620000 -21.3450000  35.2070000  16.8930000 -20.2940000  34.5480000
  17.5030000 -20.9160000  34.4900000  12.8820000 -28.1700000  33.7700000
  12.3250000 -28.5650000  33.0980000  12.3060000 -27.5600000  34.2300000
  12.7370000 -28.1420000  33.7430000  16.7960000 -28.9090000  36.9640000
  15.9730000 -28.5690000  36.6150000  16.6520000 -28.9650000  37.9090000
  16.6730000 -28.8730000  37.0410000   3.7210000 -28.5920000  31.3960000
   3.3440000 -28.7190000  32.2660000   3.1580000 -29.1030000  30.8140000
   3.6010000 -28.6730000  31.4330000  12.7280000 -27.0820000  26.8510000
  13.2730000 -26.5810000  27.4580000  12.0340000 -26.4750000  26.5940000
  12.7090000 -26.9410000  26.8960000   0.7110000 -25.5160000  27.6720000
   1.1050000 -25.5860000  26.8020000   1.3230000 -25.9710000  28.2490000
   0.8400000 -25.5830000  27.6340000  10.1820000 -28.9720000  23.5230000
   9.5100000 -29.6530000  23.5530000  10.2610000 -28.7550000  22.5940000
  10.1060000 -29.0310000  23.4080000  11.3680000 -19.9930000  32.6410000
  10.8190000 -20.0620000  31.8610000  11.7320000 -20.8700000  32.7570000
  11.3450000 -20.1140000  32.5560000   5.8020000 -29.9980000  36.5920000
   5.6870000 -30.2820000  35.6850000   4.9110000 -29.8950000  36.9250000
   5.6730000 -30.0210000  36.5180000   6.2320000 -25.4800000  29.4700000
   6.1920000 -26.4350000  29.4330000   5.7770000 -25.2510000  30.2800000
   6.1690000 -25.5720000  29.5690000  14.1970000 -28.8260000  36.1520000
  13.5060000 -29.4660000  36.3200000  13.9890000 -28.4700000  35.2890000
  14.0820000 -28.8630000  36.0630000  -0.1850000 -29.7240000  23.2890000
   0.4800000 -29.1240000  23.6270000  -1.0170000 -29.2900000  23.4780000
  -0.2060000 -29.5920000  23.3570000   2.1480000 -25.2800000  25.4910000
   2.8270000 -25.5590000  26.1050000   2.2460000 -24.3300000  25.4420000
   2.2470000 -25.1930000  25.5640000   7.5620000 -26.5430000  20.5780000
   7.1790000 -26.8530000  19.7570000   7.8010000 -25.6320000  20.4030000
   7.5440000 -26.4660000  20.4510000  10.0750000 -22.8680000  29.8800000
  10.0110000 -23.3880000  30.6820000  10.6200000 -22.1190000  30.1230000
  10.1360000 -22.8390000  30.0140000  15.5740000 -23.9720000  26.4990000
  14.6590000 -23.9620000  26.2160000  15.6960000 -24.8400000  26.8840000
  15.4720000 -24.0820000  26.5120000   5.1960000 -27.6550000  23.5830000
   6.0190000 -27.1690000  23.5450000   5.2470000 -28.1500000  24.4000000
   5.3080000 -27.6560000  23.6820000   1.8870000 -19.7800000  27.6590000
   1.3450000 -19.3570000  28.3260000   2.7860000 -19.5830000  27.9210000
   1.9320000 -19.7000000  27.7780000  14.5340000 -31.1510000  19.7490000
  15.0120000 -31.5050000  19.0000000  15.0360000 -30.3800000  20.0120000
  14.6590000 -31.0970000  19.6870000   3.4280000 -25.7150000  34.5790000
   3.3900000 -25.3980000  33.6780000   2.5560000 -26.0740000  34.7440000
   3.3110000 -25.7210000  34.4860000   7.3360000 -23.9750000  33.1540000
   6.5530000 -23.5690000  32.7850000   7.0480000 -24.8460000  33.4280000
   7.1990000 -24.0350000  33.1420000   1.0740000 -21.9630000  29.8970000
   1.7290000 -21.6020000  29.3000000   0.3960000 -22.3180000  29.3220000
   1.0710000 -21.9620000  29.7470000   6.3620000 -28.0180000  31.6330000
   6.6870000 -28.8210000  32.0400000   5.4930000 -28.2500000  31.3070000
   6.2920000 -28.1500000  31.6430000   1.9780000 -27.0850000  37.6020000
   2.7810000 -26.5740000  37.4920000   1.5280000 -26.6660000  38.3370000
   2.0230000 -26.9650000  37.6820000  12.4740000 -29.9360000  26.8620000
  12.9720000 -30.1430000  26.0710000  12.6580000 -29.0110000  27.0260000
  12.5610000 -29.8440000  26.7820000   1.0630000 -26.1530000  21.0610000
   1.8300000 -26.4760000  21.5360000   0.3210000 -26.3920000  21.6160000
   1.0660000 -26.2250000  21.1930000  17.1620000 -19.1650000  28.9300000
  17.0150000 -20.1070000  29.0110000  17.8160000 -18.9660000  29.6010000
  17.2270000 -19.2600000  29.0260000  18.4950000 -22.8860000  27.7160000
  17.6510000 -22.4730000  27.9000000  18.3630000 -23.8080000  27.9340000
  18.3700000 -22.9510000  27.7670000   9.7950000 -29.3400000  27.4850000
   9.3880000 -28.5800000  27.0690000  10.6570000 -29.4050000  27.0750000
   9.8530000 -29.2510000  27.3800000  14.3320000 -28.1010000  24.9670000
  15.0060000 -27.6900000  25.5070000  13.5220000 -27.6550000  25.2130000
  14.3150000 -27.9910000  25.0670000   2.4860000 -27.6100000  28.4700000
   3.4430000 -27.6260000  28.4510000   2.2410000 -28.4240000  28.9100000
   2.5770000 -27.7160000  28.5240000  17.9540000 -28.6720000  29.9530000
  17.5650000 -29.1460000  30.6890000  17.4190000 -27.8830000  29.8670000
  17.8360000 -28.6320000  30.0360000   9.8630000 -24.2470000  32.3180000
  10.2560000 -23.4260000  32.6140000   8.9500000 -24.1920000  32.6000000
   9.7970000 -24.1350000  32.3920000  15.0870000 -30.9640000  31.4670000
  14.8220000 -31.6150000  32.1170000  15.3060000 -31.4760000  30.6890000
  15.0810000 -31.1120000  31.4510000   5.8330000 -29.1700000  25.6920000
   6.0210000 -29.9220000  25.1300000   6.6890000 -28.7800000  25.8620000
   5.9660000 -29.2160000  25.6420000   8.2830000 -23.9630000  19.9750000
   9.1270000 -24.0010000  20.4260000   8.5060000 -23.7580000  19.0670000
   8.4200000 -23.9420000  19.9170000   5.3340000 -28.1730000  28.2440000
   5.5910000 -28.5910000  27.4220000   5.4180000 -28.8650000  28.9000000
   5.3780000 -28.3150000  28.2230000  12.6460000 -23.7180000  28.7030000
  12.7440000 -23.4710000  27.7830000  11.7920000 -23.3680000  28.9550000
  12.5490000 -23.6420000  28.6180000  10.0360000 -19.3040000  26.0420000
   9.8510000 -20.1310000  25.5960000   9.7240000 -18.6310000  25.4370000
   9.9720000 -19.3240000  25.9070000  11.6240000 -20.0690000  19.1320000
  11.7820000 -19.2300000  18.6990000  11.8860000 -19.9220000  20.0410000
  11.6780000 -19.9430000  19.1930000  13.7340000 -21.2920000  29.2420000
  13.1900000 -20.6920000  28.7310000  13.3430000 -22.1530000  29.0960000
  13.6150000 -21.3250000  29.1580000  17.5090000 -29.8830000  32.8650000
  16.6130000 -30.2080000  32.7780000  17.4090000 -28.9880000  33.1900000
  17.3810000 -29.8100000  32.8960000   7.8260000 -18.9240000  28.2150000
   7.7920000 -19.6110000  28.8800000   8.3020000 -19.3190000  27.4850000
   7.8820000 -19.0620000  28.2070000   9.7050000 -28.1960000  20.9030000
  10.4350000 -27.5760000  20.8920000   8.9230000 -27.6450000  20.8720000
   9.6980000 -28.0460000  20.8970000   9.3370000 -30.8150000  30.0190000
   8.8880000 -31.5690000  30.4010000  10.0590000 -31.1950000  29.5190000
   9.3720000 -30.9600000  30.0050000  10.8720000 -26.6910000  31.7310000
  10.5960000 -25.8670000  32.1330000  11.8230000 -26.7050000  31.8400000
  10.9590000 -26.5870000  31.7960000  10.2280000 -19.4680000  29.9800000
  11.0180000 -18.9300000  29.9260000   9.6280000 -19.0760000  29.3460000
  10.2520000 -19.3490000  29.8920000   2.2580000 -28.8430000  33.8680000
   1.5790000 -28.2050000  34.0880000   1.8490000 -29.6920000  34.0320000
   2.1180000 -28.8700000  33.9170000  13.2180000 -20.8380000  24.8320000
  12.8500000 -20.2570000  25.4970000  14.1090000 -20.5150000  24.6980000
  13.2850000 -20.7220000  24.9000000  11.3230000 -28.4010000  29.8170000
  11.0550000 -27.7580000  30.4740000  10.5240000 -28.5830000  29.3210000
  11.1860000 -28.3420000  29.8370000  -0.1350000 -30.7630000  36.4370000
  -0.7350000 -30.0300000  36.5780000   0.4120000 -30.7800000  37.2230000
  -0.1420000 -30.6710000  36.5570000  11.3000000 -30.0670000  32.3800000
  11.1370000 -29.7580000  31.4880000  10.4390000 -30.3310000  32.7020000
  11.1690000 -30.0610000  32.3070000   4.0970000 -25.1470000  20.8090000
   4.1830000 -25.1980000  19.8570000   3.5440000 -24.3790000  20.9580000
   4.0370000 -25.0550000  20.7060000  11.2320000 -26.4050000  34.9160000
  10.4140000 -26.5600000  34.4440000  11.2800000 -25.4520000  35.0050000
  11.1340000 -26.3030000  34.8670000   1.6110000 -29.9260000  29.6680000
   0.8320000 -29.4200000  29.8990000   1.3490000 -30.8390000  29.7910000
   1.4780000 -29.9780000  29.7130000  17.0550000 -20.4310000  31.7150000
  17.3370000 -20.5280000  32.6250000  16.2740000 -19.8800000  31.7640000
  16.9910000 -20.3730000  31.8380000   4.7070000 -25.7690000  26.7740000
   4.6200000 -24.9890000  27.3230000   4.7790000 -26.4930000  27.3970000
   4.7050000 -25.7620000  26.9240000   4.8090000 -30.6280000  33.9580000
   4.7180000 -30.7480000  33.0130000   4.0850000 -30.0500000  34.1960000
   4.7050000 -30.5690000  33.8670000  16.9760000 -21.6530000  25.1500000
  17.0460000 -22.2820000  25.8670000  17.0420000 -22.1850000  24.3570000
  16.9930000 -21.8010000  25.1400000   6.4340000 -31.0660000  23.2960000
   6.8070000 -31.1310000  22.4170000   5.5290000 -31.3620000  23.1950000
   6.3660000 -31.1130000  23.1710000   6.1330000 -23.9090000  21.7300000
   5.4010000 -24.3980000  21.3540000   6.7930000 -23.8960000  21.0380000
   6.1230000 -23.9700000  21.5940000   1.0790000 -20.5640000  32.3010000
   0.7860000 -20.8370000  31.4310000   0.7710000 -19.6620000  32.3850000
   1.0020000 -20.4840000  32.2000000   9.6240000 -30.4980000  18.9200000
   9.6050000 -29.8480000  19.6220000   9.9790000 -31.2860000  19.3320000
   9.6670000 -30.5150000  19.0620000   4.9940000 -23.2000000  31.6990000
   4.4240000 -22.5130000  32.0460000   4.5420000 -24.0160000  31.9130000
   4.8630000 -23.2160000  31.7710000  11.5860000 -21.6190000  22.7900000
  10.9010000 -21.6910000  23.4550000  12.3840000 -21.4410000  23.2870000
  11.6000000 -21.6060000  22.9390000  12.5950000 -22.6470000  19.0370000
  12.1950000 -21.7800000  19.0870000  12.1190000 -23.1680000  19.6840000
  12.4830000 -22.6020000  19.1260000   5.9740000 -24.3260000  24.8930000
   5.3380000 -24.7810000  25.4440000   5.4860000 -23.5920000  24.5200000
   5.8310000 -24.2900000  24.9160000  11.8520000 -22.6550000  33.0980000
  11.6490000 -22.9650000  33.9800000  12.3660000 -23.3630000  32.7080000
  11.8920000 -22.7860000  33.1610000  14.4970000 -25.0530000  35.7450000
  13.8570000 -25.5860000  36.2170000  14.4590000 -25.3760000  34.8440000
  14.4100000 -25.1630000  35.6900000   8.2640000 -22.6850000  35.8800000
   7.8770000 -23.0500000  35.0840000   7.6160000 -22.0560000  36.1950000
   8.1310000 -22.6530000  35.8190000   0.6240000 -23.3310000  33.2490000
   0.2420000 -22.4880000  33.4930000   1.4480000 -23.1050000  32.8180000
   0.6800000 -23.1940000  33.2250000  17.1640000 -27.2160000  33.5620000
  16.2730000 -27.0000000  33.8400000  17.4410000 -26.4640000  33.0410000
  17.0850000 -27.0920000  33.5320000  16.2320000 -25.1940000  23.9940000
  16.2540000 -25.0780000  24.9440000  16.4050000 -24.3210000  23.6430000
  16.2570000 -25.0670000  24.0710000  15.6070000 -19.2540000  24.3010000
  15.3430000 -19.2900000  23.3820000  16.2290000 -19.9750000  24.4000000
  15.6530000 -19.3510000  24.1960000  12.7810000 -19.2580000  21.8120000
  12.2650000 -19.9430000  22.2380000  12.2980000 -18.4510000  21.9860000
  12.6530000 -19.2430000  21.8890000   1.2720000 -31.3470000  34.1960000
   0.7060000 -30.9860000  33.5140000   0.7760000 -31.2310000  35.0070000
   1.1360000 -31.2860000  34.2120000  12.5180000 -17.7150000  30.1130000
  13.2930000 -17.8710000  29.5740000  12.4870000 -16.7640000  30.2190000
  12.6130000 -17.6130000  30.0580000   9.0880000 -21.3030000  24.3420000
   8.8500000 -22.1160000  24.7860000   8.2830000 -21.0250000  23.9050000
   8.9550000 -21.3710000  24.3430000  14.2810000 -21.8830000  35.6490000
  14.5510000 -22.7870000  35.8090000  13.3290000 -21.8960000  35.7500000
  14.1940000 -22.0000000  35.6830000  14.5910000 -26.1780000  33.3460000
  13.9810000 -26.9130000  33.4020000  14.1590000 -25.5530000  32.7630000
  14.4580000 -26.1920000  33.2790000   3.6890000 -25.5890000  31.7710000
   3.2280000 -25.2450000  31.0060000   3.7700000 -26.5280000  31.5990000
   3.6400000 -25.6650000  31.6510000   1.8850000 -27.9480000  23.9560000
   2.8410000 -27.9160000  23.9830000   1.6140000 -27.0310000  23.9940000
   1.9730000 -27.8270000  23.9640000  12.5530000 -30.3970000  24.3110000
  13.1730000 -29.9530000  23.7320000  11.7430000 -29.8930000  24.2260000
  12.5290000 -30.2750000  24.2260000  -0.8270000 -24.3450000  20.2720000
  -0.1990000 -24.8680000  20.7710000  -0.3330000 -24.0400000  19.5110000
  -0.6830000 -24.3730000  20.2390000   4.8450000 -22.2610000  23.5430000
   4.1450000 -21.8630000  23.0260000   5.2770000 -22.8640000  22.9370000
   4.8110000 -22.2870000  23.3990000  13.4460000 -24.3180000  31.3650000
  13.2730000 -24.3950000  30.4270000  14.2290000 -23.7710000  31.4200000
  13.5240000 -24.2580000  31.2520000   8.2640000 -27.9350000  25.6840000
   8.7780000 -28.5340000  25.1440000   7.9900000 -27.2440000  25.0800000
   8.2940000 -27.9230000  25.5380000  15.2920000 -19.3670000  34.9750000
  15.7010000 -19.1950000  35.8230000  15.0230000 -20.2840000  35.0200000
  15.3100000 -19.4620000  35.0890000  17.9590000 -20.0750000  21.9730000
  18.5460000 -20.2520000  21.2380000  17.3680000 -19.3950000  21.6490000
  17.9580000 -20.0110000  21.8370000   0.7510000 -20.5800000  19.7300000
   1.3080000 -21.3380000  19.9020000   1.3190000 -19.8250000  19.8860000
   0.8950000 -20.5800000  19.7720000  17.7990000 -21.7200000  36.9680000
  17.0270000 -21.6890000  37.5320000  18.4160000 -21.1100000  37.3740000
  17.7790000 -21.6380000  37.0930000  12.7000000 -26.5930000  37.0370000
  11.8890000 -26.5550000  36.5300000  13.0640000 -27.4560000  36.8420000
  12.6430000 -26.6980000  36.9470000  -0.3550000 -27.9600000  26.1720000
   0.2420000 -27.7050000  25.4680000  -0.0520000 -27.4650000  26.9340000
  -0.2400000 -27.8650000  26.1790000   2.3260000 -24.4530000  29.9770000
   2.5850000 -23.7600000  29.3690000   1.4540000 -24.1940000  30.2760000
   2.2480000 -24.3310000  29.9370000  16.0140000 -26.8630000  26.9580000
  16.8670000 -27.2050000  26.6880000  16.0360000 -26.8920000  27.9140000
  16.1260000 -26.9110000  27.0450000   8.9440000 -29.9520000  34.8630000
   8.1900000 -30.2820000  34.3740000   8.7430000 -30.1500000  35.7770000
   8.8220000 -30.0200000  34.9170000  12.4940000 -30.6300000  36.9320000
  11.7100000 -30.6680000  37.4800000  13.1310000 -31.1800000  37.3860000
  12.4750000 -30.7050000  37.0600000  14.1600000 -26.1920000  22.1730000
  14.5560000 -25.8510000  22.9750000  14.6510000 -25.7730000  21.4660000
  14.2730000 -26.0950000  22.1850000  14.3540000 -19.8360000  31.6100000
  13.8810000 -19.0030000  31.6030000  13.8230000 -20.4170000  31.0660000
  14.2250000 -19.8040000  31.5400000   3.8650000 -20.9800000  13.8540000
   2.9110000 -21.0470000  13.8220000   4.0540000 -20.6720000  14.7400000
   3.7670000 -20.9480000  13.9630000   8.6300000 -23.5350000   7.0170000
   8.4560000 -23.3740000   7.9450000   7.8650000 -24.0210000   6.7110000
   8.5100000 -23.5770000   7.0970000   5.2010000 -28.6380000   2.3480000
   5.0470000 -28.1810000   3.1750000   5.9130000 -29.2480000   2.5400000
   5.2720000 -28.6580000   2.4780000  15.3620000 -22.4800000   0.5340000
  14.5000000 -22.1510000   0.2780000  15.2660000 -23.4310000   0.5330000
  15.2390000 -22.5590000   0.5010000   2.0880000 -22.3820000   7.3110000
   2.1260000 -21.4890000   6.9670000   1.2890000 -22.4030000   7.8370000
   1.9910000 -22.2700000   7.3340000   6.7990000 -20.5920000   4.0000000
   6.0000000 -21.1190000   4.0100000   7.1430000 -20.6950000   3.1130000
   6.7410000 -20.6730000   3.8880000  10.7070000 -25.6070000   6.4670000
  10.2810000 -26.2140000   5.8630000  10.0440000 -24.9400000   6.6450000
  10.5680000 -25.5990000   6.4130000  17.5780000 -30.6840000   7.5610000
  16.7990000 -30.5740000   8.1060000  17.9220000 -29.7980000   7.4520000
  17.5220000 -30.5570000   7.6170000   8.9090000 -27.3680000  14.9930000
   8.7810000 -28.2340000  15.3820000   9.3520000 -27.5430000  14.1620000
   8.9490000 -27.5010000  14.9360000  11.7850000 -26.4160000   2.0120000
  12.5550000 -26.3950000   2.5790000  12.1040000 -26.7840000   1.1880000
  11.9240000 -26.4600000   1.9790000  17.5210000 -26.7800000   3.7420000
  17.1550000 -26.1380000   4.3520000  16.7560000 -27.2010000   3.3500000
  17.3760000 -26.7510000   3.7700000  15.5030000 -25.1790000   0.7590000
  15.5450000 -25.3130000  -0.1880000  16.3890000 -24.9120000   1.0020000
  15.6220000 -25.1620000   0.6690000   0.9060000 -26.7010000  16.1430000
  -0.0150000 -26.9210000  16.0030000   0.9860000 -26.5940000  17.0900000
   0.7980000 -26.7160000  16.2460000  12.4960000 -23.0120000   7.3480000
  12.6720000 -22.1620000   6.9450000  11.7370000 -23.3490000   6.8740000
  12.4220000 -22.9460000   7.2360000  12.2860000 -19.6870000   8.6000000
  12.8720000 -18.9500000   8.4250000  11.5040000 -19.5010000   8.0810000
  12.2610000 -19.5690000   8.5110000  11.0750000 -31.5470000  16.1370000
  11.6610000 -31.2340000  16.8260000  10.3490000 -30.9220000  16.1370000
  11.0570000 -31.4280000  16.2250000   8.6950000 -31.0460000   5.6690000
   7.8700000 -31.0650000   5.1840000   8.4440000 -31.2320000   6.5740000
   8.5570000 -31.0720000   5.7230000   5.8090000 -21.3810000  10.2860000
   5.5480000 -21.7560000  11.1270000   6.5400000 -21.9260000   9.9970000
   5.8690000 -21.4990000  10.3560000   4.0470000 -23.1880000   9.0010000
   3.3230000 -22.8850000   8.4530000   4.6410000 -22.4380000   9.0490000
   4.0310000 -23.0530000   8.9370000   3.5200000 -29.4240000   0.3390000
   2.9170000 -28.6870000   0.2430000   4.1490000 -29.1350000   1.0000000
   3.5230000 -29.2930000   0.4110000   7.9470000 -20.9620000   1.6320000
   8.4060000 -21.7840000   1.8040000   8.6450000 -20.3220000   1.4930000
   8.0950000 -20.9850000   1.6360000   6.6700000 -30.4710000  10.6140000
   7.5510000 -30.1800000  10.8460000   6.7560000 -30.8050000   9.7210000
   6.7940000 -30.4760000  10.5290000   0.5640000 -24.0080000  17.9480000
  -0.1980000 -23.4400000  17.8310000   0.7690000 -24.3180000  17.0660000
   0.4920000 -23.9750000  17.8200000   2.6350000 -22.7130000  19.2850000
   3.1180000 -22.1530000  18.6780000   2.1920000 -23.3490000  18.7240000
   2.6400000 -22.7220000  19.1360000   6.2610000 -20.9770000  18.0830000
   6.8350000 -21.0640000  18.8440000   6.2190000 -20.0350000  17.9210000
   6.3290000 -20.8680000  18.1590000  16.0960000 -26.6440000  10.9200000
  16.5360000 -26.1370000  11.6030000  15.4240000 -27.1410000  11.3860000
  16.0670000 -26.6430000  11.0670000  17.3110000 -24.8760000  13.1480000
  16.5970000 -24.2710000  12.9490000  18.0270000 -24.3130000  13.4450000
  17.3120000 -24.7270000  13.1610000   6.6160000 -27.1230000  17.9840000
   6.4590000 -28.0670000  17.9480000   6.5270000 -26.8310000  17.0770000
   6.5840000 -27.2070000  17.8630000  10.8230000 -23.8150000   2.0860000
  11.1270000 -24.7080000   2.2420000  11.3500000 -23.2750000   2.6750000
  10.9290000 -23.8600000   2.1810000  13.9330000 -28.1420000  11.8400000
  13.0580000 -28.3990000  11.5500000  14.2850000 -28.9250000  12.2640000
  13.8660000 -28.2750000  11.8570000   3.6420000 -21.2260000  16.9980000
   3.3900000 -20.3220000  17.1890000   4.5470000 -21.2910000  17.3010000
   3.7260000 -21.1180000  17.0610000  16.9560000 -22.9030000   3.6390000
  17.0770000 -22.0280000   3.2710000  17.1650000 -23.4960000   2.9180000
  16.9980000 -22.8660000   3.4990000   1.3530000 -19.4200000   4.8220000
   0.5720000 -19.5520000   4.2840000   1.3230000 -18.4950000   5.0660000
   1.2490000 -19.3180000   4.7840000  11.4040000 -23.6180000  16.7730000
  11.9860000 -23.7820000  17.5140000  10.8110000 -22.9320000  17.0810000
  11.4020000 -23.5510000  16.9070000   7.7060000 -23.1550000   9.5120000
   7.2260000 -23.9620000   9.6890000   8.4360000 -23.1680000  10.1310000
   7.7380000 -23.2600000   9.6140000  21.1180000 -30.2370000   7.8960000
  21.1320000 -30.5500000   8.8010000  21.0690000 -29.2840000   7.9730000
  21.1140000 -30.1550000   8.0220000   7.2490000 -30.6530000  13.8990000
   6.4040000 -30.9730000  14.2160000   7.7220000 -31.4440000  13.6400000
   7.2010000 -30.7950000  13.9070000   4.1760000 -25.4670000  18.2330000
   4.9870000 -25.9550000  18.0910000   3.9070000 -25.1900000  17.3570000
   4.2450000 -25.4940000  18.1020000   3.0840000 -20.8950000   3.3560000
   2.5020000 -20.3970000   3.9290000   3.3130000 -20.2840000   2.6560000
   3.0390000 -20.7530000   3.3400000  16.6830000 -29.3360000   1.7800000
  16.2260000 -29.5770000   2.5860000  17.6090000 -29.4760000   1.9790000
  16.7430000 -29.3850000   1.9090000   6.4380000 -26.4280000  15.2610000
   7.3180000 -26.8000000  15.2090000   5.9000000 -27.0080000  14.7240000
   6.4820000 -26.5490000  15.1860000  15.4270000 -22.7160000  13.6180000
  15.0760000 -22.8190000  14.5030000  15.5750000 -21.7740000  13.5280000
  15.4010000 -22.6090000  13.7200000  17.5640000 -20.9490000  15.4970000
  17.7620000 -21.3450000  16.3470000  16.8930000 -20.2940000  15.6880000
  17.5030000 -20.9160000  15.6300000  12.8820000 -28.1700000  14.9100000
  12.3250000 -28.5650000  14.2380000  12.3060000 -27.5600000  15.3700000
  12.7370000 -28.1420000  14.8830000  16.7960000 -28.9090000  18.1040000
  15.9730000 -28.5690000  17.7550000  16.6520000 -28.9650000  19.0490000
  16.6730000 -28.8730000  18.1800000   3.7210000 -28.5920000  12.5360000
   3.3440000 -28.7190000  13.4060000   3.1580000 -29.1030000  11.9540000
   3.6010000 -28.6730000  12.5730000  12.7280000 -27.0820000   7.9910000
  13.2730000 -26.5810000   8.5980000  12.0340000 -26.4750000   7.7340000
  12.7090000 -26.9410000   8.0360000   0.7110000 -25.5160000   8.8120000
   1.1050000 -25.5860000   7.9420000   1.3230000 -25.9710000   9.3890000
   0.8400000 -25.5830000   8.7740000  15.4320000 -29.8360000   4.1840000
  15.3890000 -29.2170000   4.9140000  15.0660000 -30.6470000   4.5360000
  15.3800000 -29.8600000   4.3230000  10.1820000 -28.9720000   4.6630000
   9.5100000 -29.6530000   4.6930000  10.2610000 -28.7550000   3.7340000
  10.1060000 -29.0310000   4.5480000  11.3680000 -19.9930000  13.7810000
  10.8190000 -20.0620000  13.0010000  11.7320000 -20.8700000  13.8970000
  11.3450000 -20.1140000  13.6960000   5.8020000 -29.9980000  17.7320000
   5.6870000 -30.2820000  16.8250000   4.9110000 -29.8950000  18.0650000
   5.6730000 -30.0210000  17.6590000   6.2320000 -25.4800000  10.6100000
   6.1920000 -26.4350000  10.5730000   5.7770000 -25.2510000  11.4200000
   6.1690000 -25.5720000  10.7090000  14.1970000 -28.8260000  17.2920000
  13.5060000 -29.4660000  17.4600000  13.9890000 -28.4700000  16.4290000
  14.0820000 -28.8630000  17.2030000  -0.1850000 -29.7240000   4.4290000
   0.4800000 -29.1240000   4.7670000  -1.0170000 -29.2900000   4.6180000
  -0.2060000 -29.5920000   4.4970000   2.1480000 -25.2800000   6.6310000
   2.8270000 -25.5590000   7.2450000   2.2460000 -24.3300000   6.5820000
   2.2470000 -25.1930000   6.7040000   7.5620000 -26.5430000   1.7180000
   7.1790000 -26.8530000   0.8970000   7.8010000 -25.6320000   1.5430000
   7.5440000 -26.4660000   1.5910000  10.0750000 -22.8680000  11.0200000
  10.0110000 -23.3880000  11.8220000  10.6200000 -22.1190000  11.2630000
  10.1360000 -22.8390000  11.1540000  15.5740000 -23.9720000   7.6390000
  14.6590000 -23.9620000   7.3560000  15.6960000 -24.8400000   8.0240000
  15.4720000 -24.0820000   7.6520000   5.1960000 -27.6550000   4.7230000
   6.0190000 -27.1690000   4.6850000   5.2470000 -28.1500000   5.5400000
   5.3080000 -27.6560000   4.8220000   1.8870000 -19.7800000   8.7990000
   1.3450000 -19.3570000   9.4660000   2.7860000 -19.5830000   9.0610000
   1.9320000 -19.7000000   8.9180000   7.4910000 -26.0180000   4.7250000
   6.9680000 -25.3150000   5.1110000   7.5030000 -25.8220000   3.7890000
   7.4260000 -25.9030000   4.6550000  14.5340000 -31.1510000   0.8890000
  15.0120000 -31.5050000   0.1400000  15.0360000 -30.3800000   1.1520000
  14.6590000 -31.0970000   0.8270000   3.4280000 -25.7150000  15.7190000
   3.3900000 -25.3980000  14.8170000   2.5560000 -26.0740000  15.8840000
   3.3110000 -25.7210000  15.6250000   7.3360000 -23.9750000  14.2940000
   6.5530000 -23.5690000  13.9250000   7.0480000 -24.8460000  14.5670000
   7.1990000 -24.0350000  14.2820000   1.0740000 -21.9630000  11.0370000
   1.7290000 -21.6020000  10.4400000   0.3960000 -22.3180000  10.4620000
   1.0710000 -21.9620000  10.8870000   6.3620000 -28.0180000  12.7730000
   6.6870000 -28.8210000  13.1800000   5.4930000 -28.2500000  12.4470000
   6.2920000 -28.1500000  12.7830000   1.9780000 -27.0850000  18.7420000
   2.7810000 -26.5740000  18.6320000   1.5280000 -26.6660000  19.4760000
   2.0230000 -26.9650000  18.8220000  12.4740000 -29.9360000   8.0020000
  12.9720000 -30.1430000   7.2110000  12.6580000 -29.0110000   8.1660000
  12.5610000 -29.8440000   7.9220000   1.0630000 -26.1530000   2.2010000
   1.8300000 -26.4760000   2.6760000   0.3210000 -26.3920000   2.7560000
   1.0660000 -26.2250000   2.3330000  17.1620000 -19.1650000  10.0700000
  17.0150000 -20.1070000  10.1510000  17.8160000 -18.9660000  10.7410000
  17.2270000 -19.2600000  10.1660000  18.4950000 -22.8860000   8.8560000
  17.6510000 -22.4730000   9.0400000  18.3630000 -23.8080000   9.0740000
  18.3700000 -22.9510000   8.9070000   9.7950000 -29.3400000   8.6250000
   9.3880000 -28.5800000   8.2090000  10.6570000 -29.4050000   8.2150000
   9.8530000 -29.2510000   8.5190000  14.3320000 -28.1010000   6.1070000
  15.0060000 -27.6900000   6.6470000  13.5220000 -27.6550000   6.3530000
  14.3150000 -27.9910000   6.2070000   2.4860000 -27.6100000   9.6100000
   3.4430000 -27.6260000   9.5910000   2.2410000 -28.4240000  10.0500000
   2.5770000 -27.7160000   9.6640000  17.9540000 -28.6720000  11.0930000
  17.5650000 -29.1460000  11.8290000  17.4190000 -27.8830000  11.0070000
  17.8360000 -28.6320000  11.1760000   9.8630000 -24.2470000  13.4580000
  10.2560000 -23.4260000  13.7540000   8.9500000 -24.1920000  13.7400000
   9.7970000 -24.1350000  13.5320000  15.0870000 -30.9640000  12.6070000
  14.8220000 -31.6150000  13.2570000  15.3060000 -31.4760000  11.8290000
  15.0810000 -31.1120000  12.5910000   5.8330000 -29.1700000   6.8320000
   6.0210000 -29.9220000   6.2700000   6.6890000 -28.7800000   7.0020000
   5.9660000 -29.2160000   6.7820000   8.2830000 -23.9630000   1.1150000
   9.1270000 -24.0010000   1.5660000   8.5060000 -23.7580000   0.2070000
   8.4200000 -23.9420000   1.0570000   5.3340000 -28.1730000   9.3840000
   5.5910000 -28.5910000   8.5620000   5.4180000 -28.8650000  10.0400000
   5.3780000 -28.3150000   9.3630000  12.6460000 -23.7180000   9.8430000
  12.7440000 -23.4710000   8.9230000  11.7920000 -23.3680000  10.0950000
  12.5490000 -23.6420000   9.7580000  10.0360000 -19.3040000   7.1820000
   9.8510000 -20.1310000   6.7360000   9.7240000 -18.6310000   6.5770000
   9.9720000 -19.3240000   7.0470000  11.6240000 -20.0690000   0.2720000
  11.7820000 -19.2300000  -0.1610000  11.8860000 -19.9220000   1.1810000
  11.6780000 -19.9430000   0.3330000  13.7340000 -21.2920000  10.3820000
  13.1900000 -20.6920000   9.8710000  13.3430000 -22.1530000  10.2360000
  13.6150000 -21.3250000  10.2980000  17.5090000 -29.8830000  14.0050000
  16.6130000 -30.2080000  13.9180000  17.4090000 -28.9880000  14.3300000
  17.3810000 -29.8100000  14.0360000   7.8260000 -18.9240000   9.3550000
   7.7920000 -19.6110000  10.0200000   8.3020000 -19.3190000   8.6250000
   7.8820000 -19.0620000   9.3470000   9.7050000 -28.1960000   2.0430000
  10.4350000 -27.5760000   2.0320000   8.9230000 -27.6450000   2.0120000
   9.6980000 -28.0460000   2.0370000   9.3370000 -30.8150000  11.1590000
   8.8880000 -31.5690000  11.5410000  10.0590000 -31.1950000  10.6590000
   9.3720000 -30.9600000  11.1440000  10.8720000 -26.6910000  12.8710000
  10.5960000 -25.8670000  13.2730000  11.8230000 -26.7050000  12.9800000
  10.9590000 -26.5870000  12.9360000  10.2280000 -19.4680000  11.1200000
  11.0180000 -18.9300000  11.0660000   9.6280000 -19.0760000  10.4860000
  10.2520000 -19.3490000  11.0320000   2.2580000 -28.8430000  15.0080000
   1.5790000 -28.2050000  15.2280000   1.8490000 -29.6920000  15.1710000
   2.1180000 -28.8700000  15.0570000  13.2180000 -20.8380000   5.9720000
  12.8500000 -20.2570000   6.6370000  14.1090000 -20.5150000   5.8380000
  13.2850000 -20.7220000   6.0400000  11.3230000 -28.4010000  10.9570000
  11.0550000 -27.7580000  11.6140000  10.5240000 -28.5830000  10.4610000
  11.1860000 -28.3420000  10.9770000  -0.1350000 -30.7630000  17.5770000
  -0.7350000 -30.0300000  17.7180000   0.4120000 -30.7800000  18.3630000
  -0.1420000 -30.6710000  17.6960000  11.3000000 -30.0670000  13.5190000
  11.1370000 -29.7580000  12.6280000  10.4390000 -30.3310000  13.8420000
  11.1690000 -30.0610000  13.4470000   4.0970000 -25.1470000   1.9490000
   4.1830000 -25.1980000   0.9970000   3.5440000 -24.3790000   2.0980000
   4.0370000 -25.0550000   1.8460000  11.2320000 -26.4050000  16.0550000
  10.4140000 -26.5600000  15.5840000  11.2800000 -25.4520000  16.1440000
  11.1340000 -26.3030000  16.0060000   1.6110000 -29.9260000  10.8080000
   0.8320000 -29.4200000  11.0390000   1.3490000 -30.8390000  10.9310000
   1.4780000 -29.9780000  10.8530000  17.0550000 -20.4310000  12.8550000
  17.3370000 -20.5280000  13.7650000  16.2740000 -19.8800000  12.9040000
  16.9910000 -20.3730000  12.9780000   4.8090000 -30.6280000  15.0980000
   4.7180000 -30.7480000  14.1530000   4.0850000 -30.0500000  15.3360000
   4.7050000 -30.5690000  15.0070000  16.9760000 -21.6530000   6.2900000
  17.0460000 -22.2820000   7.0070000  17.0420000 -22.1850000   5.4970000
  16.9930000 -21.8010000   6.2800000   6.4340000 -31.0660000   4.4360000
   6.8070000 -31.1310000   3.5570000   5.5290000 -31.3620000   4.3350000
   6.3660000 -31.1130000   4.3110000   6.1330000 -23.9090000   2.8700000
   5.4010000 -24.3980000   2.4940000   6.7930000 -23.8960000   2.1780000
   6.1230000 -23.9700000   2.7340000   1.0790000 -20.5640000  13.4410000
   0.7860000 -20.8370000  12.5710000   0.7710000 -19.6620000  13.5250000
   1.0020000 -20.4840000  13.3400000   9.6240000 -30.4980000   0.0600000
   9.6050000 -29.8480000   0.7620000   9.9790000 -31.2860000   0.4720000
   9.6670000 -30.5150000   0.2020000   4.9940000 -23.2000000  12.8390000
   4.4240000 -22.5130000  13.1860000   4.5420000 -24.0160000  13.0530000
   4.8630000 -23.2160000  12.9110000  11.5860000 -21.6190000   3.9300000
  10.9010000 -21.6910000   4.5950000  12.3840000 -21.4410000   4.4270000
  11.6000000 -21.6060000   4.0790000  12.5950000 -22.6470000   0.1770000
  12.1950000 -21.7800000   0.2270000  12.1190000 -23.1680000   0.8240000
  12.4830000 -22.6020000   0.2660000   5.9740000 -24.3260000   6.0330000
   5.3380000 -24.7810000   6.5840000   5.4860000 -23.5920000   5.6600000
   5.8310000 -24.2900000   6.0560000  11.8520000 -22.6550000  14.2380000
  11.6490000 -22.9650000  15.1200000  12.3660000 -23.3630000  13.8480000
  11.8920000 -22.7860000  14.3010000  14.4970000 -25.0530000  16.8850000
  13.8570000 -25.5860000  17.3570000  14.4590000 -25.3760000  15.9840000
  14.4100000 -25.1630000  16.8300000   8.2640000 -22.6850000  17.0200000
   7.8770000 -23.0500000  16.2240000   7.6160000 -22.0560000  17.3350000
   8.1310000 -22.6530000  16.9590000   0.6240000 -23.3310000  14.3890000
   0.2420000 -22.4880000  14.6330000   1.4480000 -23.1050000  13.9580000
   0.6800000 -23.1940000  14.3650000  17.1640000 -27.2160000  14.7020000
  16.2730000 -27.0000000  14.9800000  17.4410000 -26.4640000  14.1800000
  17.0850000 -27.0920000  14.6710000  16.2320000 -25.1940000   5.1340000
  16.2540000 -25.0780000   6.0840000  16.4050000 -24.3210000   4.7830000
  16.2570000 -25.0670000   5.2110000  15.6070000 -19.2540000   5.4410000
  15.3430000 -19.2900000   4.5220000  16.2290000 -19.9750000   5.5400000
  15.6530000 -19.3510000   5.3360000  12.7810000 -19.2580000   2.9520000
  12.2650000 -19.9430000   3.3780000  12.2980000 -18.4510000   3.1260000
  12.6530000 -19.2430000   3.0290000   1.2720000 -31.3470000  15.3360000
   0.7060000 -30.9860000  14.6540000   0.7760000 -31.2310000  16.1460000
   1.1360000 -31.2860000  15.3520000  12.5180000 -17.7150000  11.2530000
  13.2930000 -17.8710000  10.7140000  12.4870000 -16.7640000  11.3590000
  12.6130000 -17.6130000  11.1980000   9.0880000 -21.3030000   5.4820000
   8.8500000 -22.1160000   5.9260000   8.2830000 -21.0250000   5.0450000
   8.9550000 -21.3710000   5.4830000  14.2810000 -21.8830000  16.7890000
  14.5510000 -22.7870000  16.9490000  13.3290000 -21.8960000  16.8900000
  14.1940000 -22.0000000  16.8230000  14.5910000 -26.1780000  14.4860000
  13.9810000 -26.9130000  14.5420000  14.1590000 -25.5530000  13.9030000
  14.4580000 -26.1920000  14.4190000   3.6890000 -25.5890000  12.9110000
   3.2280000 -25.2450000  12.1460000   3.7700000 -26.5280000  12.7390000
   3.6400000 -25.6650000  12.7910000   1.8850000 -27.9480000   5.0960000
   2.8410000 -27.9160000   5.1230000   1.6140000 -27.0310000   5.1340000
   1.9730000 -27.8270000   5.1040000  -0.8270000 -24.3450000   1.4120000
  -0.1990000 -24.8680000   1.9110000  -0.3330000 -24.0400000   0.6510000
  -0.6830000 -24.3730000   1.3790000   4.8450000 -22.2610000   4.6830000
   4.1450000 -21.8630000   4.1660000   5.2770000 -22.8640000   4.0770000
   4.8110000 -22.2870000   4.5390000  13.4460000 -24.3180000  12.5050000
  13.2730000 -24.3950000  11.5670000  14.2290000 -23.7710000  12.5600000
  13.5240000 -24.2580000  12.3920000   8.2640000 -27.9350000   6.8240000
   8.7780000 -28.5340000   6.2840000   7.9900000 -27.2440000   6.2200000
   8.2940000 -27.9230000   6.6780000  15.2920000 -19.3670000  16.1150000
  15.7010000 -19.1950000  16.9630000  15.0230000 -20.2840000  16.1600000
  15.3100000 -19.4620000  16.2290000  17.9590000 -20.0750000   3.1130000
  18.5460000 -20.2520000   2.3780000  17.3680000 -19.3950000   2.7890000
  17.9580000 -20.0110000   2.9770000   0.7510000 -20.5800000   0.8700000
   1.3080000 -21.3380000   1.0420000   1.3190000 -19.8250000   1.0260000
   0.8950000 -20.5800000   0.9120000  17.7990000 -21.7200000  18.1080000
  17.0270000 -21.6890000  18.6720000  18.4160000 -21.1100000  18.5140000
  17.7790000 -21.6380000  18.2330000  12.7000000 -26.5930000  18.1770000
  11.8890000 -26.5550000  17.6700000  13.0640000 -27.4560000  17.9820000
  12.6430000 -26.6980000  18.0870000  -0.3550000 -27.9600000   7.3120000
   0.2420000 -27.7050000   6.6080000  -0.0520000 -27.4650000   8.0740000
  -0.2400000 -27.8650000   7.3190000   2.3260000 -24.4530000  11.1170000
   2.5850000 -23.7600000  10.5090000   1.4540000 -24.1940000  11.4160000
   2.2480000 -24.3310000  11.0770000  16.0140000 -26.8630000   8.0980000
  16.8670000 -27.2050000   7.8280000  16.0360000 -26.8920000   9.0540000
  16.1260000 -26.9110000   8.1850000   8.9440000 -29.9520000  16.0030000
   8.1900000 -30.2820000  15.5140000   8.7430000 -30.1500000  16.9170000
   8.8220000 -30.0200000  16.0570000  12.4940000 -30.6300000  18.0720000
  11.7100000 -30.6680000  18.6200000  13.1310000 -31.1800000  18.5260000
  12.4750000 -30.7050000  18.2000000  14.1600000 -26.1920000   3.3130000
  14.5560000 -25.8510000   4.1150000  14.6510000 -25.7730000   2.6060000
  14.2730000 -26.0950000   3.3250000  14.3540000 -19.8360000  12.7500000
  13.8810000 -19.0030000  12.7430000  13.8230000 -20.4170000  12.2060000
  14.2250000 -19.8040000  12.6800000   3.8650000 -20.9800000  -5.0060000
   2.9110000 -21.0470000  -5.0380000   4.0540000 -20.6720000  -4.1200000
   3.7670000 -20.9480000  -4.8970000   8.6300000 -23.5350000 -11.8430000
   8.4560000 -23.3740000 -10.9150000   7.8650000 -24.0210000 -12.1490000
   8.5100000 -23.5770000 -11.7630000   5.2010000 -28.6380000 -16.5120000
   5.0470000 -28.1810000 -15.6850000   5.9130000 -29.2480000 -16.3200000
   5.2720000 -28.6580000 -16.3820000  15.3620000 -22.4800000 -18.3260000
  14.5000000 -22.1510000 -18.5820000  15.2660000 -23.4310000 -18.3270000
  15.2390000 -22.5590000 -18.3590000   2.0880000 -22.3820000 -11.5490000
   2.1260000 -21.4890000 -11.8930000   1.2890000 -22.4030000 -11.0230000
   1.9910000 -22.2700000 -11.5260000   6.7990000 -20.5920000 -14.8600000
   6.0000000 -21.1190000 -14.8500000   7.1430000 -20.6950000 -15.7470000
   6.7410000 -20.6730000 -14.9720000  10.7070000 -25.6070000 -12.3930000
  10.2810000 -26.2140000 -12.9970000  10.0440000 -24.9400000 -12.2150000
  10.5680000 -25.5990000 -12.4470000  17.5780000 -30.6840000 -11.2990000
  16.7990000 -30.5740000 -10.7540000  17.9220000 -29.7980000 -11.4080000
  17.5220000 -30.5570000 -11.2430000   8.9090000 -27.3680000  -3.8670000
   8.7810000 -28.2340000  -3.4780000   9.3520000 -27.5430000  -4.6980000
   8.9490000 -27.5010000  -3.9240000  11.7850000 -26.4160000 -16.8480000
  12.5550000 -26.3950000 -16.2810000  12.1040000 -26.7840000 -17.6720000
  11.9240000 -26.4600000 -16.8810000  17.5210000 -26.7800000 -15.1180000
  17.1550000 -26.1380000 -14.5080000  16.7560000 -27.2010000 -15.5100000
  17.3760000 -26.7510000 -15.0900000  15.5030000 -25.1790000 -18.1010000
  15.5450000 -25.3130000 -19.0480000  16.3890000 -24.9120000 -17.8580000
  15.6220000 -25.1620000 -18.1910000   0.9060000 -26.7010000  -2.7170000
  -0.0150000 -26.9210000  -2.8570000   0.9860000 -26.5940000  -1.7700000
   0.7980000 -26.7160000  -2.6140000  12.4960000 -23.0120000 -11.5120000
  12.6720000 -22.1620000 -11.9150000  11.7370000 -23.3490000 -11.9860000
  12.4220000 -22.9460000 -11.6240000  12.2860000 -19.6870000 -10.2600000
  12.8720000 -18.9500000 -10.4350000  11.5040000 -19.5010000 -10.7790000
  12.2610000 -19.5690000 -10.3490000  11.0750000 -31.5470000  -2.7230000
  11.6610000 -31.2340000  -2.0340000  10.3490000 -30.9220000  -2.7230000
  11.0570000 -31.4280000  -2.6350000   8.6950000 -31.0460000 -13.1910000
   7.8700000 -31.0650000 -13.6760000   8.4440000 -31.2320000 -12.2860000
   8.5570000 -31.0720000 -13.1370000   5.8090000 -21.3810000  -8.5740000
   5.5480000 -21.7560000  -7.7330000   6.5400000 -21.9260000  -8.8630000
   5.8690000 -21.4990000  -8.5040000   4.0470000 -23.1880000  -9.8590000
   3.3230000 -22.8850000 -10.4070000   4.6410000 -22.4380000  -9.8110000
   4.0310000 -23.0530000  -9.9230000   3.5200000 -29.4240000 -18.5210000
   2.9170000 -28.6870000 -18.6170000   4.1490000 -29.1350000 -17.8600000
   3.5230000 -29.2930000 -18.4490000   7.9470000 -20.9620000 -17.2280000
   8.4060000 -21.7840000 -17.0560000   8.6450000 -20.3220000 -17.3670000
   8.0950000 -20.9850000 -17.2240000   6.6700000 -30.4710000  -8.2460000
   7.5510000 -30.1800000  -8.0140000   6.7560000 -30.8050000  -9.1390000
   6.7940000 -30.4760000  -8.3310000   0.5640000 -24.0080000  -0.9120000
  -0.1980000 -23.4400000  -1.0290000   0.7690000 -24.3180000  -1.7940000
   0.4920000 -23.9750000  -1.0400000   2.6350000 -22.7130000   0.4250000
   3.1180000 -22.1530000  -0.1820000   2.1920000 -23.3490000  -0.1360000
   2.6400000 -22.7220000   0.2760000   6.2610000 -20.9770000  -0.7770000
   6.8350000 -21.0640000  -0.0160000   6.2190000 -20.0350000  -0.9390000
   6.3290000 -20.8680000  -0.7010000  16.0960000 -26.6440000  -7.9400000
  16.5360000 -26.1370000  -7.2570000  15.4240000 -27.1410000  -7.4740000
  16.0670000 -26.6430000  -7.7930000   6.6160000 -27.1230000  -0.8760000
   6.4590000 -28.0670000  -0.9120000   6.5270000 -26.8310000  -1.7830000
   6.5840000 -27.2070000  -0.9970000  10.8230000 -23.8150000 -16.7740000
  11.1270000 -24.7080000 -16.6180000  11.3500000 -23.2750000 -16.1850000
  10.9290000 -23.8600000 -16.6790000  13.9330000 -28.1420000  -7.0200000
  13.0580000 -28.3990000  -7.3100000  14.2850000 -28.9250000  -6.5960000
  13.8660000 -28.2750000  -7.0030000   3.6420000 -21.2260000  -1.8620000
   3.3900000 -20.3220000  -1.6710000   4.5470000 -21.2910000  -1.5590000
   3.7260000 -21.1180000  -1.7990000  16.9560000 -22.9030000 -15.2210000
  17.0770000 -22.0280000 -15.5890000  17.1650000 -23.4960000 -15.9420000
  16.9980000 -22.8660000 -15.3610000   1.3530000 -19.4200000 -14.0380000
   0.5720000 -19.5520000 -14.5760000   1.3230000 -18.4950000 -13.7940000
   1.2490000 -19.3180000 -14.0760000  11.4040000 -23.6180000  -2.0870000
  11.9860000 -23.7820000  -1.3460000  10.8110000 -22.9320000  -1.7790000
  11.4020000 -23.5510000  -1.9530000   7.7060000 -23.1550000  -9.3480000
   7.2260000 -23.9620000  -9.1710000   8.4360000 -23.1680000  -8.7290000
   7.7380000 -23.2600000  -9.2460000  21.1180000 -30.2370000 -10.9640000
  21.1320000 -30.5500000 -10.0590000  21.0690000 -29.2840000 -10.8870000
  21.1140000 -30.1550000 -10.8380000   7.2490000 -30.6530000  -4.9610000
   6.4040000 -30.9730000  -4.6440000   7.7220000 -31.4440000  -5.2200000
   7.2010000 -30.7950000  -4.9530000   4.1760000 -25.4670000  -0.6270000
   4.9870000 -25.9550000  -0.7690000   3.9070000 -25.1900000  -1.5030000
   4.2450000 -25.4940000  -0.7580000   3.0840000 -20.8950000 -15.5040000
   2.5020000 -20.3970000 -14.9310000   3.3130000 -20.2840000 -16.2040000
   3.0390000 -20.7530000 -15.5200000  16.6830000 -29.3360000 -17.0800000
  16.2260000 -29.5770000 -16.2740000  17.6090000 -29.4760000 -16.8810000
  16.7430000 -29.3850000 -16.9510000   6.4380000 -26.4280000  -3.5990000
   7.3180000 -26.8000000  -3.6510000   5.9000000 -27.0080000  -4.1360000
   6.4820000 -26.5490000  -3.6740000  15.4270000 -22.7160000  -5.2420000
  15.0760000 -22.8190000  -4.3570000  15.5750000 -21.7740000  -5.3320000
  15.4010000 -22.6090000  -5.1400000  17.5640000 -20.9490000  -3.3630000
  17.7620000 -21.3450000  -2.5130000  16.8930000 -20.2940000  -3.1720000
  17.5030000 -20.9160000  -3.2300000  12.8820000 -28.1700000  -3.9500000
  12.3250000 -28.5650000  -4.6220000  12.3060000 -27.5600000  -3.4900000
  12.7370000 -28.1420000  -3.9770000  16.7960000 -28.9090000  -0.7560000
  15.9730000 -28.5690000  -1.1050000  16.6520000 -28.9650000   0.1890000
  16.6730000 -28.8730000  -0.6800000   3.7210000 -28.5920000  -6.3240000
   3.3440000 -28.7190000  -5.4540000   3.1580000 -29.1030000  -6.9060000
   3.6010000 -28.6730000  -6.2870000  12.7280000 -27.0820000 -10.8690000
  13.2730000 -26.5810000 -10.2620000  12.0340000 -26.4750000 -11.1260000
  12.7090000 -26.9410000 -10.8240000   0.7110000 -25.5160000 -10.0480000
   1.1050000 -25.5860000 -10.9180000   1.3230000 -25.9710000  -9.4710000
   0.8400000 -25.5830000 -10.0860000  15.4320000 -29.8360000 -14.6760000
  15.3890000 -29.2170000 -13.9460000  15.0660000 -30.6470000 -14.3240000
  15.3800000 -29.8600000 -14.5370000  10.1820000 -28.9720000 -14.1970000
   9.5100000 -29.6530000 -14.1670000  10.2610000 -28.7550000 -15.1260000
  10.1060000 -29.0310000 -14.3120000  11.3680000 -19.9930000  -5.0790000
  10.8190000 -20.0620000  -5.8590000  11.7320000 -20.8700000  -4.9630000
  11.3450000 -20.1140000  -5.1640000   5.8020000 -29.9980000  -1.1280000
   5.6870000 -30.2820000  -2.0350000   4.9110000 -29.8950000  -0.7950000
   5.6730000 -30.0210000  -1.2020000   6.2320000 -25.4800000  -8.2500000
   6.1920000 -26.4350000  -8.2870000   5.7770000 -25.2510000  -7.4400000
   6.1690000 -25.5720000  -8.1510000  14.1970000 -28.8260000  -1.5680000
  13.5060000 -29.4660000  -1.4000000  13.9890000 -28.4700000  -2.4310000
  14.0820000 -28.8630000  -1.6570000  -0.1850000 -29.7240000 -14.4310000
   0.4800000 -29.1240000 -14.0930000  -1.0170000 -29.2900000 -14.2420000
  -0.2060000 -29.5920000 -14.3630000   2.1480000 -25.2800000 -12.2290000
   2.8270000 -25.5590000 -11.6150000   2.2460000 -24.3300000 -12.2780000
   2.2470000 -25.1930000 -12.1560000   7.5620000 -26.5430000 -17.1420000
   7.1790000 -26.8530000 -17.9630000   7.8010000 -25.6320000 -17.3170000
   7.5440000 -26.4660000 -17.2690000  10.0750000 -22.8680000  -7.8400000
  10.0110000 -23.3880000  -7.0380000  10.6200000 -22.1190000  -7.5970000
  10.1360000 -22.8390000  -7.7060000  15.5740000 -23.9720000 -11.2210000
  14.6590000 -23.9620000 -11.5040000  15.6960000 -24.8400000 -10.8360000
  15.4720000 -24.0820000 -11.2080000   5.1960000 -27.6550000 -14.1370000
   6.0190000 -27.1690000 -14.1750000   5.2470000 -28.1500000 -13.3200000
   5.3080000 -27.6560000 -14.0380000   1.8870000 -19.7800000 -10.0610000
   1.3450000 -19.3570000  -9.3940000   2.7860000 -19.5830000  -9.7990000
   1.9320000 -19.7000000  -9.9420000   7.4910000 -26.0180000 -14.1350000
   6.9680000 -25.3150000 -13.7490000   7.5030000 -25.8220000 -15.0710000
   7.4260000 -25.9030000 -14.2050000  14.5340000 -31.1510000 -17.9710000
  15.0120000 -31.5050000 -18.7200000  15.0360000 -30.3800000 -17.7080000
  14.6590000 -31.0970000 -18.0330000   3.4280000 -25.7150000  -3.1410000
   3.3900000 -25.3980000  -4.0430000   2.5560000 -26.0740000  -2.9760000
   3.3110000 -25.7210000  -3.2350000   7.3360000 -23.9750000  -4.5660000
   6.5530000 -23.5690000  -4.9350000   7.0480000 -24.8460000  -4.2930000
   7.1990000 -24.0350000  -4.5780000   1.0740000 -21.9630000  -7.8230000
   1.7290000 -21.6020000  -8.4200000   0.3960000 -22.3180000  -8.3980000
   1.0710000 -21.9620000  -7.9730000   6.3620000 -28.0180000  -6.0870000
   6.6870000 -28.8210000  -5.6800000   5.4930000 -28.2500000  -6.4130000
   6.2920000 -28.1500000  -6.0770000   1.9780000 -27.0850000  -0.1180000
   2.7810000 -26.5740000  -0.2280000   1.5280000 -26.6660000   0.6160000
   2.0230000 -26.9650000  -0.0380000  12.4740000 -29.9360000 -10.8580000
  12.9720000 -30.1430000 -11.6490000  12.6580000 -29.0110000 -10.6940000
  12.5610000 -29.8440000 -10.9380000   1.0630000 -26.1530000 -16.6590000
   1.8300000 -26.4760000 -16.1840000   0.3210000 -26.3920000 -16.1040000
   1.0660000 -26.2250000 -16.5270000  17.1620000 -19.1650000  -8.7900000
  17.0150000 -20.1070000  -8.7090000  17.8160000 -18.9660000  -8.1190000
  17.2270000 -19.2600000  -8.6940000  18.4950000 -22.8860000 -10.0040000
  17.6510000 -22.4730000  -9.8200000  18.3630000 -23.8080000  -9.7860000
  18.3700000 -22.9510000  -9.9530000   9.7950000 -29.3400000 -10.2350000
   9.3880000 -28.5800000 -10.6510000  10.6570000 -29.4050000 -10.6450000
   9.8530000 -29.2510000 -10.3410000  14.3320000 -28.1010000 -12.7530000
  15.0060000 -27.6900000 -12.2130000  13.5220000 -27.6550000 -12.5070000
  14.3150000 -27.9910000 -12.6530000   2.4860000 -27.6100000  -9.2500000
   3.4430000 -27.6260000  -9.2690000   2.2410000 -28.4240000  -8.8100000
   2.5770000 -27.7160000  -9.1960000  17.9540000 -28.6720000  -7.7670000
  17.5650000 -29.1460000  -7.0310000  17.4190000 -27.8830000  -7.8530000
  17.8360000 -28.6320000  -7.6840000   9.8630000 -24.2470000  -5.4020000
  10.2560000 -23.4260000  -5.1060000   8.9500000 -24.1920000  -5.1200000
   9.7970000 -24.1350000  -5.3280000  15.0870000 -30.9640000  -6.2530000
  14.8220000 -31.6150000  -5.6030000  15.3060000 -31.4760000  -7.0310000
  15.0810000 -31.1120000  -6.2690000   5.8330000 -29.1700000 -12.0280000
   6.0210000 -29.9220000 -12.5900000   6.6890000 -28.7800000 -11.8580000
   5.9660000 -29.2160000 -12.0780000   8.2830000 -23.9630000 -17.7450000
   9.1270000 -24.0010000 -17.2940000   8.5060000 -23.7580000 -18.6530000
   8.4200000 -23.9420000 -17.8030000   5.3340000 -28.1730000  -9.4760000
   5.5910000 -28.5910000 -10.2980000   5.4180000 -28.8650000  -8.8200000
   5.3780000 -28.3150000  -9.4970000  12.6460000 -23.7180000  -9.0170000
  12.7440000 -23.4710000  -9.9370000  11.7920000 -23.3680000  -8.7650000
  12.5490000 -23.6420000  -9.1020000  10.0360000 -19.3040000 -11.6780000
   9.8510000 -20.1310000 -12.1240000   9.7240000 -18.6310000 -12.2830000
   9.9720000 -19.3240000 -11.8130000  11.6240000 -20.0690000 -18.5880000
  11.7820000 -19.2300000 -19.0210000  11.8860000 -19.9220000 -17.6790000
  11.6780000 -19.9430000 -18.5270000  13.7340000 -21.2920000  -8.4780000
  13.1900000 -20.6920000  -8.9890000  13.3430000 -22.1530000  -8.6240000
  13.6150000 -21.3250000  -8.5620000  17.5090000 -29.8830000  -4.8550000
  16.6130000 -30.2080000  -4.9420000  17.4090000 -28.9880000  -4.5300000
  17.3810000 -29.8100000  -4.8240000   7.8260000 -18.9240000  -9.5050000
   7.7920000 -19.6110000  -8.8400000   8.3020000 -19.3190000 -10.2350000
   7.8820000 -19.0620000  -9.5130000   9.7050000 -28.1960000 -16.8170000
  10.4350000 -27.5760000 -16.8280000   8.9230000 -27.6450000 -16.8480000
   9.6980000 -28.0460000 -16.8230000   9.3370000 -30.8150000  -7.7010000
   8.8880000 -31.5690000  -7.3190000  10.0590000 -31.1950000  -8.2010000
   9.3720000 -30.9600000  -7.7160000  10.8720000 -26.6910000  -5.9890000
  10.5960000 -25.8670000  -5.5870000  11.8230000 -26.7050000  -5.8800000
  10.9590000 -26.5870000  -5.9240000  10.2280000 -19.4680000  -7.7400000
  11.0180000 -18.9300000  -7.7940000   9.6280000 -19.0760000  -8.3740000
  10.2520000 -19.3490000  -7.8280000   2.2580000 -28.8430000  -3.8520000
   1.5790000 -28.2050000  -3.6320000   1.8490000 -29.6920000  -3.6890000
   2.1180000 -28.8700000  -3.8030000  13.2180000 -20.8380000 -12.8880000
  12.8500000 -20.2570000 -12.2230000  14.1090000 -20.5150000 -13.0220000
  13.2850000 -20.7220000 -12.8200000  11.3230000 -28.4010000  -7.9030000
  11.0550000 -27.7580000  -7.2460000  10.5240000 -28.5830000  -8.3990000
  11.1860000 -28.3420000  -7.8830000  -0.1350000 -30.7630000  -1.2830000
  -0.7350000 -30.0300000  -1.1420000   0.4120000 -30.7800000  -0.4970000
  -0.1420000 -30.6710000  -1.1640000  11.3000000 -30.0670000  -5.3410000
  11.1370000 -29.7580000  -6.2320000  10.4390000 -30.3310000  -5.0180000
  11.1690000 -30.0610000  -5.4130000   4.0970000 -25.1470000 -16.9110000
   4.1830000 -25.1980000 -17.8630000   3.5440000 -24.3790000 -16.7620000
   4.0370000 -25.0550000 -17.0140000  11.2320000 -26.4050000  -2.8050000
  10.4140000 -26.5600000  -3.2760000  11.2800000 -25.4520000  -2.7160000
  11.1340000 -26.3030000  -2.8540000   1.6110000 -29.9260000  -8.0520000
   0.8320000 -29.4200000  -7.8210000   1.3490000 -30.8390000  -7.9290000
   1.4780000 -29.9780000  -8.0070000  17.0550000 -20.4310000  -6.0050000
  17.3370000 -20.5280000  -5.0950000  16.2740000 -19.8800000  -5.9560000
  16.9910000 -20.3730000  -5.8820000   4.7070000 -25.7690000 -10.9460000
   4.6200000 -24.9890000 -10.3970000   4.7790000 -26.4930000 -10.3230000
   4.7050000 -25.7620000 -10.7960000   4.8090000 -30.6280000  -3.7620000
   4.7180000 -30.7480000  -4.7070000   4.0850000 -30.0500000  -3.5240000
   4.7050000 -30.5690000  -3.8530000  16.9760000 -21.6530000 -12.5700000
  17.0460000 -22.2820000 -11.8530000  17.0420000 -22.1850000 -13.3630000
  16.9930000 -21.8010000 -12.5800000   6.4340000 -31.0660000 -14.4240000
   6.8070000 -31.1310000 -15.3030000   5.5290000 -31.3620000 -14.5250000
   6.3660000 -31.1130000 -14.5490000   6.1330000 -23.9090000 -15.9900000
   5.4010000 -24.3980000 -16.3660000   6.7930000 -23.8960000 -16.6820000
   6.1230000 -23.9700000 -16.1260000   1.0790000 -20.5640000  -5.4190000
   0.7860000 -20.8370000  -6.2890000   0.7710000 -19.6620000  -5.3350000
   1.0020000 -20.4840000  -5.5200000   9.6240000 -30.4980000 -18.8000000
   9.6050000 -29.8480000 -18.0980000   9.9790000 -31.2860000 -18.3880000
   9.6670000 -30.5150000 -18.6580000   4.9940000 -23.2000000  -6.0210000
   4.4240000 -22.5130000  -5.6740000   4.5420000 -24.0160000  -5.8070000
   4.8630000 -23.2160000  -5.9490000  11.5860000 -21.6190000 -14.9300000
  10.9010000 -21.6910000 -14.2650000  12.3840000 -21.4410000 -14.4330000
  11.6000000 -21.6060000 -14.7810000  12.5950000 -22.6470000 -18.6830000
  12.1950000 -21.7800000 -18.6330000  12.1190000 -23.1680000 -18.0360000
  12.4830000 -22.6020000 -18.5940000   5.9740000 -24.3260000 -12.8270000
   5.3380000 -24.7810000 -12.2760000   5.4860000 -23.5920000 -13.2000000
   5.8310000 -24.2900000 -12.8040000  11.8520000 -22.6550000  -4.6220000
  11.6490000 -22.9650000  -3.7400000  12.3660000 -23.3630000  -5.0120000
  11.8920000 -22.7860000  -4.5590000  14.4970000 -25.0530000  -1.9750000
  13.8570000 -25.5860000  -1.5030000  14.4590000 -25.3760000  -2.8760000
  14.4100000 -25.1630000  -2.0300000   8.2640000 -22.6850000  -1.8400000
   7.8770000 -23.0500000  -2.6360000   7.6160000 -22.0560000  -1.5250000
   8.1310000 -22.6530000  -1.9010000   0.6240000 -23.3310000  -4.4710000
   0.2420000 -22.4880000  -4.2270000   1.4480000 -23.1050000  -4.9020000
   0.6800000 -23.1940000  -4.4950000  17.1640000 -27.2160000  -4.1580000
  16.2730000 -27.0000000  -3.8800000  17.4410000 -26.4640000  -4.6800000
  17.0850000 -27.0920000  -4.1890000  16.2320000 -25.1940000 -13.7260000
  16.2540000 -25.0780000 -12.7760000  16.4050000 -24.3210000 -14.0770000
  16.2570000 -25.0670000 -13.6490000  15.6070000 -19.2540000 -13.4190000
  15.3430000 -19.2900000 -14.3380000  16.2290000 -19.9750000 -13.3200000
  15.6530000 -19.3510000 -13.5240000  12.7810000 -19.2580000 -15.9080000
  12.2650000 -19.9430000 -15.4820000  12.2980000 -18.4510000 -15.7340000
  12.6530000 -19.2430000 -15.8310000   1.2720000 -31.3470000  -3.5240000
   0.7060000 -30.9860000  -4.2060000   0.7760000 -31.2310000  -2.7140000
   1.1360000 -31.2860000  -3.5080000  12.5180000 -17.7150000  -7.6070000
  13.2930000 -17.8710000  -8.1460000  12.4870000 -16.7640000  -7.5010000
  12.6130000 -17.6130000  -7.6620000   9.0880000 -21.3030000 -13.3780000
   8.8500000 -22.1160000 -12.9340000   8.2830000 -21.0250000 -13.8150000
   8.9550000 -21.3710000 -13.3770000  14.2810000 -21.8830000  -2.0710000
  14.5510000 -22.7870000  -1.9110000  13.3290000 -21.8960000  -1.9700000
  14.1940000 -22.0000000  -2.0370000  14.5910000 -26.1780000  -4.3740000
  13.9810000 -26.9130000  -4.3180000  14.1590000 -25.5530000  -4.9570000
  14.4580000 -26.1920000  -4.4410000   3.6890000 -25.5890000  -5.9490000
   3.2280000 -25.2450000  -6.7140000   3.7700000 -26.5280000  -6.1210000
   3.6400000 -25.6650000  -6.0690000   1.8850000 -27.9480000 -13.7640000
   2.8410000 -27.9160000 -13.7370000   1.6140000 -27.0310000 -13.7260000
   1.9730000 -27.8270000 -13.7560000  12.5530000 -30.3970000 -13.4090000
  13.1730000 -29.9530000 -13.9880000  11.7430000 -29.8930000 -13.4940000
  12.5290000 -30.2750000 -13.4940000  -0.8270000 -24.3450000 -17.4480000
  -0.1990000 -24.8680000 -16.9490000  -0.3330000 -24.0400000 -18.2090000
  -0.6830000 -24.3730000 -17.4810000   4.8450000 -22.2610000 -14.1770000
   4.1450000 -21.8630000 -14.6940000   5.2770000 -22.8640000 -14.7830000
   4.8110000 -22.2870000 -14.3210000  13.4460000 -24.3180000  -6.3550000
  13.2730000 -24.3950000  -7.2930000  14.2290000 -23.7710000  -6.3000000
  13.5240000 -24.2580000  -6.4680000   8.2640000 -27.9350000 -12.0360000
   8.7780000 -28.5340000 -12.5760000   7.9900000 -27.2440000 -12.6400000
   8.2940000 -27.9230000 -12.1820000  15.2920000 -19.3670000  -2.7450000
  15.7010000 -19.1950000  -1.8970000  15.0230000 -20.2840000  -2.7000000
  15.3100000 -19.4620000  -2.6310000  17.9590000 -20.0750000 -15.7470000
  18.5460000 -20.2520000 -16.4820000  17.3680000 -19.3950000 -16.0710000
  17.9580000 -20.0110000 -15.8830000   0.7510000 -20.5800000 -17.9900000
   1.3080000 -21.3380000 -17.8180000   1.3190000 -19.8250000 -17.8340000
   0.8950000 -20.5800000 -17.9480000  17.7990000 -21.7200000  -0.7520000
  17.0270000 -21.6890000  -0.1880000  18.4160000 -21.1100000  -0.3460000
  17.7790000 -21.6380000  -0.6270000  12.7000000 -26.5930000  -0.6830000
  11.8890000 -26.5550000  -1.1900000  13.0640000 -27.4560000  -0.8780000
  12.6430000 -26.6980000  -0.7730000  -0.3550000 -27.9600000 -11.5480000
   0.2420000 -27.7050000 -12.2520000  -0.0520000 -27.4650000 -10.7860000
  -0.2400000 -27.8650000 -11.5410000   2.3260000 -24.4530000  -7.7430000
   2.5850000 -23.7600000  -8.3510000   1.4540000 -24.1940000  -7.4440000
   2.2480000 -24.3310000  -7.7830000  16.0140000 -26.8630000 -10.7620000
  16.8670000 -27.2050000 -11.0320000  16.0360000 -26.8920000  -9.8060000
  16.1260000 -26.9110000 -10.6750000   8.9440000 -29.9520000  -2.8570000
   8.1900000 -30.2820000  -3.3460000   8.7430000 -30.1500000  -1.9430000
   8.8220000 -30.0200000  -2.8030000  12.4940000 -30.6300000  -0.7880000
  11.7100000 -30.6680000  -0.2400000  13.1310000 -31.1800000  -0.3340000
  12.4750000 -30.7050000  -0.6600000  14.1600000 -26.1920000 -15.5470000
  14.5560000 -25.8510000 -14.7450000  14.6510000 -25.7730000 -16.2540000
  14.2730000 -26.0950000 -15.5350000  14.3540000 -19.8360000  -6.1100000
  13.8810000 -19.0030000  -6.1170000  13.8230000 -20.4170000  -6.6540000
  14.2250000 -19.8040000  -6.1800000   3.8650000 -20.9800000 -23.8660000
   2.9110000 -21.0470000 -23.8980000   4.0540000 -20.6720000 -22.9800000
   3.7670000 -20.9480000 -23.7570000   8.6300000 -23.5350000 -30.7030000
   8.4560000 -23.3740000 -29.7750000   7.8650000 -24.0210000 -31.0090000
   8.5100000 -23.5770000 -30.6230000   5.2010000 -28.6380000 -35.3720000
   5.0470000 -28.1810000 -34.5450000   5.9130000 -29.2480000 -35.1800000
   5.2720000 -28.6580000 -35.2420000  15.3620000 -22.4800000 -37.1860000
  14.5000000 -22.1510000 -37.4420000  15.2660000 -23.4310000 -37.1870000
  15.2390000 -22.5590000 -37.2190000   2.0880000 -22.3820000 -30.4090000
   2.1260000 -21.4890000 -30.7530000   1.2890000 -22.4030000 -29.8830000
   1.9910000 -22.2700000 -30.3860000   6.7990000 -20.5920000 -33.7200000
   6.0000000 -21.1190000 -33.7100000   7.1430000 -20.6950000 -34.6070000
   6.7410000 -20.6730000 -33.8320000  10.7070000 -25.6070000 -31.2530000
  10.2810000 -26.2140000 -31.8570000  10.0440000 -24.9400000 -31.0750000
  10.5680000 -25.5990000 -31.3070000  17.5780000 -30.6840000 -30.1590000
  16.7990000 -30.5740000 -29.6140000  17.9220000 -29.7980000 -30.2680000
  17.5220000 -30.5570000 -30.1030000   8.9090000 -27.3680000 -22.7270000
   8.7810000 -28.2340000 -22.3380000   9.3520000 -27.5430000 -23.5580000
   8.9490000 -27.5010000 -22.7840000  11.7850000 -26.4160000 -35.7080000
  12.5550000 -26.3950000 -35.1410000  12.1040000 -26.7840000 -36.5320000
  11.9240000 -26.4600000 -35.7410000  17.5210000 -26.7800000 -33.9780000
  17.1550000 -26.1380000 -33.3680000  16.7560000 -27.2010000 -34.3700000
  17.3760000 -26.7510000 -33.9500000  15.5030000 -25.1790000 -36.9610000
  15.5450000 -25.3130000 -37.9080000  16.3890000 -24.9120000 -36.7180000
  15.6220000 -25.1620000 -37.0510000   0.9060000 -26.7010000 -21.5770000
  -0.0150000 -26.9210000 -21.7170000   0.9860000 -26.5940000 -20.6300000
   0.7980000 -26.7160000 -21.4740000  12.4960000 -23.0120000 -30.3720000
  12.6720000 -22.1620000 -30.7750000  11.7370000 -23.3490000 -30.8460000
  12.4220000 -22.9460000 -30.4840000  12.2860000 -19.6870000 -29.1200000
  12.8720000 -18.9500000 -29.2950000  11.5040000 -19.5010000 -29.6390000
  12.2610000 -19.5690000 -29.2090000  11.0750000 -31.5470000 -21.5830000
  11.6610000 -31.2340000 -20.8940000  10.3490000 -30.9220000 -21.5830000
  11.0570000 -31.4280000 -21.4950000   8.6950000 -31.0460000 -32.0510000
   7.8700000 -31.0650000 -32.5360000   8.4440000 -31.2320000 -31.1460000
   8.5570000 -31.0720000 -31.9970000   5.8090000 -21.3810000 -27.4340000
   5.5480000 -21.7560000 -26.5930000   6.5400000 -21.9260000 -27.7230000
   5.8690000 -21.4990000 -27.3640000   4.0470000 -23.1880000 -28.7190000
   3.3230000 -22.8850000 -29.2670000   4.6410000 -22.4380000 -28.6710000
   4.0310000 -23.0530000 -28.7830000   3.5200000 -29.4240000 -37.3810000
   2.9170000 -28.6870000 -37.4770000   4.1490000 -29.1350000 -36.7200000
   3.5230000 -29.2930000 -37.3090000   7.9470000 -20.9620000 -36.0880000
   8.4060000 -21.7840000 -35.9160000   8.6450000 -20.3220000 -36.2270000
   8.0950000 -20.9850000 -36.0840000   6.6700000 -30.4710000 -27.1060000
   7.5510000 -30.1800000 -26.8740000   6.7560000 -30.8050000 -27.9990000
   6.7940000 -30.4760000 -27.1910000   0.5640000 -24.0080000 -19.7720000
  -0.1980000 -23.4400000 -19.8890000   0.7690000 -24.3180000 -20.6540000
   0.4920000 -23.9750000 -19.9000000   2.6350000 -22.7130000 -18.4350000
   3.1180000 -22.1530000 -19.0420000   2.1920000 -23.3490000 -18.9960000
   2.6400000 -22.7220000 -18.5840000   6.2610000 -20.9770000 -19.6370000
   6.8350000 -21.0640000 -18.8760000   6.2190000 -20.0350000 -19.7990000
   6.3290000 -20.8680000 -19.5610000  16.0960000 -26.6440000 -26.8000000
  16.5360000 -26.1370000 -26.1170000  15.4240000 -27.1410000 -26.3340000
  16.0670000 -26.6430000 -26.6530000  17.3110000 -24.8760000 -24.5720000
  16.5970000 -24.2710000 -24.7710000  18.0270000 -24.3130000 -24.2750000
  17.3120000 -24.7270000 -24.5590000   6.6160000 -27.1230000 -19.7360000
   6.4590000 -28.0670000 -19.7720000   6.5270000 -26.8310000 -20.6430000
   6.5840000 -27.2070000 -19.8570000  10.8230000 -23.8150000 -35.6340000
  11.1270000 -24.7080000 -35.4780000  11.3500000 -23.2750000 -35.0450000
  10.9290000 -23.8600000 -35.5390000  13.9330000 -28.1420000 -25.8800000
  13.0580000 -28.3990000 -26.1700000  14.2850000 -28.9250000 -25.4560000
  13.8660000 -28.2750000 -25.8630000   3.6420000 -21.2260000 -20.7220000
   3.3900000 -20.3220000 -20.5310000   4.5470000 -21.2910000 -20.4190000
   3.7260000 -21.1180000 -20.6590000  16.9560000 -22.9030000 -34.0810000
  17.0770000 -22.0280000 -34.4490000  17.1650000 -23.4960000 -34.8020000
  16.9980000 -22.8660000 -34.2210000   1.3530000 -19.4200000 -32.8980000
   0.5720000 -19.5520000 -33.4360000   1.3230000 -18.4950000 -32.6540000
   1.2490000 -19.3180000 -32.9360000  11.4040000 -23.6180000 -20.9470000
  11.9860000 -23.7820000 -20.2060000  10.8110000 -22.9320000 -20.6390000
  11.4020000 -23.5510000 -20.8130000   7.7060000 -23.1550000 -28.2080000
   7.2260000 -23.9620000 -28.0310000   8.4360000 -23.1680000 -27.5890000
   7.7380000 -23.2600000 -28.1060000  21.1180000 -30.2370000 -29.8240000
  21.1320000 -30.5500000 -28.9190000  21.0690000 -29.2840000 -29.7470000
  21.1140000 -30.1550000 -29.6980000   7.2490000 -30.6530000 -23.8210000
   6.4040000 -30.9730000 -23.5040000   7.7220000 -31.4440000 -24.0800000
   7.2010000 -30.7950000 -23.8130000   4.1760000 -25.4670000 -19.4870000
   4.9870000 -25.9550000 -19.6290000   3.9070000 -25.1900000 -20.3630000
   4.2450000 -25.4940000 -19.6180000   3.0840000 -20.8950000 -34.3640000
   2.5020000 -20.3970000 -33.7910000   3.3130000 -20.2840000 -35.0640000
   3.0390000 -20.7530000 -34.3800000  16.6830000 -29.3360000 -35.9400000
  16.2260000 -29.5770000 -35.1340000  17.6090000 -29.4760000 -35.7410000
  16.7430000 -29.3850000 -35.8110000   6.4380000 -26.4280000 -22.4590000
   7.3180000 -26.8000000 -22.5110000   5.9000000 -27.0080000 -22.9960000
   6.4820000 -26.5490000 -22.5340000  15.4270000 -22.7160000 -24.1020000
  15.0760000 -22.8190000 -23.2170000  15.5750000 -21.7740000 -24.1920000
  15.4010000 -22.6090000 -24.0000000  17.5640000 -20.9490000 -22.2230000
  17.7620000 -21.3450000 -21.3730000  16.8930000 -20.2940000 -22.0320000
  17.5030000 -20.9160000 -22.0900000  12.8820000 -28.1700000 -22.8100000
  12.3250000 -28.5650000 -23.4820000  12.3060000 -27.5600000 -22.3500000
  12.7370000 -28.1420000 -22.8370000  16.7960000 -28.9090000 -19.6160000
  15.9730000 -28.5690000 -19.9650000  16.6520000 -28.9650000 -18.6710000
  16.6730000 -28.8730000 -19.5400000   3.7210000 -28.5920000 -25.1840000
   3.3440000 -28.7190000 -24.3140000   3.1580000 -29.1030000 -25.7660000
   3.6010000 -28.6730000 -25.1470000  12.7280000 -27.0820000 -29.7290000
  13.2730000 -26.5810000 -29.1220000  12.0340000 -26.4750000 -29.9860000
  12.7090000 -26.9410000 -29.6840000   0.7110000 -25.5160000 -28.9080000
   1.1050000 -25.5860000 -29.7780000   1.3230000 -25.9710000 -28.3310000
   0.8400000 -25.5830000 -28.9460000  15.4320000 -29.8360000 -33.5360000
  15.3890000 -29.2170000 -32.8060000  15.0660000 -30.6470000 -33.1840000
  15.3800000 -29.8600000 -33.3970000  10.1820000 -28.9720000 -33.0570000
   9.5100000 -29.6530000 -33.0270000  10.2610000 -28.7550000 -33.9860000
  10.1060000 -29.0310000 -33.1720000  11.3680000 -19.9930000 -23.9390000
  10.8190000 -20.0620000 -24.7190000  11.7320000 -20.8700000 -23.8230000
  11.3450000 -20.1140000 -24.0240000   5.8020000 -29.9980000 -19.9880000
   5.6870000 -30.2820000 -20.8950000   4.9110000 -29.8950000 -19.6550000
   5.6730000 -30.0210000 -20.0620000   6.2320000 -25.4800000 -27.1100000
   6.1920000 -26.4350000 -27.1470000   5.7770000 -25.2510000 -26.3000000
   6.1690000 -25.5720000 -27.0110000  14.1970000 -28.8260000 -20.4280000
  13.5060000 -29.4660000 -20.2600000  13.9890000 -28.4700000 -21.2910000
  14.0820000 -28.8630000 -20.5170000  -0.1850000 -29.7240000 -33.2910000
   0.4800000 -29.1240000 -32.9530000  -1.0170000 -29.2900000 -33.1020000
  -0.2060000 -29.5920000 -33.2230000   2.1480000 -25.2800000 -31.0890000
   2.8270000 -25.5590000 -30.4750000   2.2460000 -24.3300000 -31.1380000
   2.2470000 -25.1930000 -31.0160000   7.5620000 -26.5430000 -36.0020000
   7.1790000 -26.8530000 -36.8230000   7.8010000 -25.6320000 -36.1770000
   7.5440000 -26.4660000 -36.1290000  10.0750000 -22.8680000 -26.7000000
  10.0110000 -23.3880000 -25.8980000  10.6200000 -22.1190000 -26.4570000
  10.1360000 -22.8390000 -26.5660000  15.5740000 -23.9720000 -30.0810000
  14.6590000 -23.9620000 -30.3640000  15.6960000 -24.8400000 -29.6960000
  15.4720000 -24.0820000 -30.0680000   5.1960000 -27.6550000 -32.9970000
   6.0190000 -27.1690000 -33.0350000   5.2470000 -28.1500000 -32.1800000
   5.3080000 -27.6560000 -32.8980000   1.8870000 -19.7800000 -28.9210000
   1.3450000 -19.3570000 -28.2540000   2.7860000 -19.5830000 -28.6590000
   1.9320000 -19.7000000 -28.8020000   7.4910000 -26.0180000 -32.9950000
   6.9680000 -25.3150000 -32.6090000   7.5030000 -25.8220000 -33.9310000
   7.4260000 -25.9030000 -33.0650000  14.5340000 -31.1510000 -36.8310000
  15.0120000 -31.5050000 -37.5800000  15.0360000 -30.3800000 -36.5680000
  14.6590000 -31.0970000 -36.8930000   3.4280000 -25.7150000 -22.0010000
   3.3900000 -25.3980000 -22.9030000   2.5560000 -26.0740000 -21.8360000
   3.3110000 -25.7210000 -22.0950000   1.0740000 -21.9630000 -26.6830000
   1.7290000 -21.6020000 -27.2800000   0.3960000 -22.3180000 -27.2580000
   1.0710000 -21.9620000 -26.8330000   6.3620000 -28.0180000 -24.9470000
   6.6870000 -28.8210000 -24.5400000   5.4930000 -28.2500000 -25.2730000
   6.2920000 -28.1500000 -24.9370000   1.9780000 -27.0850000 -18.9780000
   2.7810000 -26.5740000 -19.0880000   1.5280000 -26.6660000 -18.2440000
   2.0230000 -26.9650000 -18.8980000  12.4740000 -29.9360000 -29.7180000
  12.9720000 -30.1430000 -30.5090000  12.6580000 -29.0110000 -29.5540000
  12.5610000 -29.8440000 -29.7980000   1.0630000 -26.1530000 -35.5190000
   1.8300000 -26.4760000 -35.0440000   0.3210000 -26.3920000 -34.9640000
   1.0660000 -26.2250000 -35.3870000  17.1620000 -19.1650000 -27.6500000
  17.0150000 -20.1070000 -27.5690000  17.8160000 -18.9660000 -26.9790000
  17.2270000 -19.2600000 -27.5540000  18.4950000 -22.8860000 -28.8640000
  17.6510000 -22.4730000 -28.6800000  18.3630000 -23.8080000 -28.6460000
  18.3700000 -22.9510000 -28.8130000   9.7950000 -29.3400000 -29.0950000
   9.3880000 -28.5800000 -29.5110000  10.6570000 -29.4050000 -29.5050000
   9.8530000 -29.2510000 -29.2010000  14.3320000 -28.1010000 -31.6130000
  15.0060000 -27.6900000 -31.0730000  13.5220000 -27.6550000 -31.3670000
  14.3150000 -27.9910000 -31.5130000   2.4860000 -27.6100000 -28.1100000
   3.4430000 -27.6260000 -28.1290000   2.2410000 -28.4240000 -27.6700000
   2.5770000 -27.7160000 -28.0560000  17.9540000 -28.6720000 -26.6270000
  17.5650000 -29.1460000 -25.8910000  17.4190000 -27.8830000 -26.7130000
  17.8360000 -28.6320000 -26.5440000   9.8630000 -24.2470000 -24.2620000
  10.2560000 -23.4260000 -23.9660000   8.9500000 -24.1920000 -23.9800000
   9.7970000 -24.1350000 -24.1880000  15.0870000 -30.9640000 -25.1130000
  14.8220000 -31.6150000 -24.4630000  15.3060000 -31.4760000 -25.8910000
  15.0810000 -31.1120000 -25.1290000   5.8330000 -29.1700000 -30.8880000
   6.0210000 -29.9220000 -31.4500000   6.6890000 -28.7800000 -30.7180000
   5.9660000 -29.2160000 -30.9380000   8.2830000 -23.9630000 -36.6050000
   9.1270000 -24.0010000 -36.1540000   8.5060000 -23.7580000 -37.5130000
   8.4200000 -23.9420000 -36.6630000   5.3340000 -28.1730000 -28.3360000
   5.5910000 -28.5910000 -29.1580000   5.4180000 -28.8650000 -27.6800000
   5.3780000 -28.3150000 -28.3570000  12.6460000 -23.7180000 -27.8770000
  12.7440000 -23.4710000 -28.7970000  11.7920000 -23.3680000 -27.6250000
  12.5490000 -23.6420000 -27.9620000  10.0360000 -19.3040000 -30.5380000
   9.8510000 -20.1310000 -30.9840000   9.7240000 -18.6310000 -31.1430000
   9.9720000 -19.3240000 -30.6730000  11.6240000 -20.0690000 -37.4480000
  11.7820000 -19.2300000 -37.8810000  11.8860000 -19.9220000 -36.5390000
  11.6780000 -19.9430000 -37.3870000  13.7340000 -21.2920000 -27.3380000
  13.1900000 -20.6920000 -27.8490000  13.3430000 -22.1530000 -27.4840000
  13.6150000 -21.3250000 -27.4220000  17.5090000 -29.8830000 -23.7150000
  16.6130000 -30.2080000 -23.8020000  17.4090000 -28.9880000 -23.3900000
  17.3810000 -29.8100000 -23.6840000   7.8260000 -18.9240000 -28.3650000
   7.7920000 -19.6110000 -27.7000000   8.3020000 -19.3190000 -29.0950000
   7.8820000 -19.0620000 -28.3730000   9.7050000 -28.1960000 -35.6770000
  10.4350000 -27.5760000 -35.6880000   8.9230000 -27.6450000 -35.7080000
   9.6980000 -28.0460000 -35.6830000   9.3370000 -30.8150000 -26.5610000
   8.8880000 -31.5690000 -26.1790000  10.0590000 -31.1950000 -27.0610000
   9.3720000 -30.9600000 -26.5760000  10.8720000 -26.6910000 -24.8490000
  10.5960000 -25.8670000 -24.4470000  11.8230000 -26.7050000 -24.7400000
  10.9590000 -26.5870000 -24.7840000  10.2280000 -19.4680000 -26.6000000
  11.0180000 -18.9300000 -26.6540000   9.6280000 -19.0760000 -27.2340000
  10.2520000 -19.3490000 -26.6880000   2.2580000 -28.8430000 -22.7120000
   1.5790000 -28.2050000 -22.4920000   1.8490000 -29.6920000 -22.5490000
   2.1180000 -28.8700000 -22.6630000  13.2180000 -20.8380000 -31.7480000
  12.8500000 -20.2570000 -31.0830000  14.1090000 -20.5150000 -31.8820000
  13.2850000 -20.7220000 -31.6800000  11.3230000 -28.4010000 -26.7630000
  11.0550000 -27.7580000 -26.1060000  10.5240000 -28.5830000 -27.2590000
  11.1860000 -28.3420000 -26.7430000  -0.1350000 -30.7630000 -20.1430000
  -0.7350000 -30.0300000 -20.0020000   0.4120000 -30.7800000 -19.3570000
  -0.1420000 -30.6710000 -20.0240000  11.3000000 -30.0670000 -24.2010000
  11.1370000 -29.7580000 -25.0920000  10.4390000 -30.3310000 -23.8780000
  11.1690000 -30.0610000 -24.2730000   4.0970000 -25.1470000 -35.7710000
   4.1830000 -25.1980000 -36.7230000   3.5440000 -24.3790000 -35.6220000
   4.0370000 -25.0550000 -35.8740000  11.2320000 -26.4050000 -21.6650000
  10.4140000 -26.5600000 -22.1360000  11.2800000 -25.4520000 -21.5760000
  11.1340000 -26.3030000 -21.7140000   1.6110000 -29.9260000 -26.9120000
   0.8320000 -29.4200000 -26.6810000   1.3490000 -30.8390000 -26.7890000
   1.4780000 -29.9780000 -26.8670000  17.0550000 -20.4310000 -24.8650000
  17.3370000 -20.5280000 -23.9550000  16.2740000 -19.8800000 -24.8160000
  16.9910000 -20.3730000 -24.7420000   4.7070000 -25.7690000 -29.8060000
   4.6200000 -24.9890000 -29.2570000   4.7790000 -26.4930000 -29.1830000
   4.7050000 -25.7620000 -29.6560000   4.8090000 -30.6280000 -22.6220000
   4.7180000 -30.7480000 -23.5670000   4.0850000 -30.0500000 -22.3840000
   4.7050000 -30.5690000 -22.7130000  16.9760000 -21.6530000 -31.4300000
  17.0460000 -22.2820000 -30.7130000  17.0420000 -22.1850000 -32.2230000
  16.9930000 -21.8010000 -31.4400000   6.4340000 -31.0660000 -33.2840000
   6.8070000 -31.1310000 -34.1630000   5.5290000 -31.3620000 -33.3850000
   6.3660000 -31.1130000 -33.4090000   6.1330000 -23.9090000 -34.8500000
   5.4010000 -24.3980000 -35.2260000   6.7930000 -23.8960000 -35.5420000
   6.1230000 -23.9700000 -34.9860000   1.0790000 -20.5640000 -24.2790000
   0.7860000 -20.8370000 -25.1490000   0.7710000 -19.6620000 -24.1950000
   1.0020000 -20.4840000 -24.3800000   9.6240000 -30.4980000 -37.6600000
   9.6050000 -29.8480000 -36.9580000   9.9790000 -31.2860000 -37.2480000
   9.6670000 -30.5150000 -37.5180000   4.9940000 -23.2000000 -24.8810000
   4.4240000 -22.5130000 -24.5340000   4.5420000 -24.0160000 -24.6670000
   4.8630000 -23.2160000 -24.8090000  11.5860000 -21.6190000 -33.7900000
  10.9010000 -21.6910000 -33.1250000  12.3840000 -21.4410000 -33.2930000
  11.6000000 -21.6060000 -33.6410000  12.5950000 -22.6470000 -37.5430000
  12.1950000 -21.7800000 -37.4930000  12.1190000 -23.1680000 -36.8960000
  12.4830000 -22.6020000 -37.4540000   5.9740000 -24.3260000 -31.6870000
   5.3380000 -24.7810000 -31.1360000   5.4860000 -23.5920000 -32.0600000
   5.8310000 -24.2900000 -31.6640000  11.8520000 -22.6550000 -23.4820000
  11.6490000 -22.9650000 -22.6000000  12.3660000 -23.3630000 -23.8720000
  11.8920000 -22.7860000 -23.4190000  14.4970000 -25.0530000 -20.8350000
  13.8570000 -25.5860000 -20.3630000  14.4590000 -25.3760000 -21.7360000
  14.4100000 -25.1630000 -20.8900000   8.2640000 -22.6850000 -20.7000000
   7.8770000 -23.0500000 -21.4960000   7.6160000 -22.0560000 -20.3850000
   8.1310000 -22.6530000 -20.7610000   0.6240000 -23.3310000 -23.3310000
   0.2420000 -22.4880000 -23.0870000   1.4480000 -23.1050000 -23.7620000
   0.6800000 -23.1940000 -23.3550000  17.1640000 -27.2160000 -23.0180000
  16.2730000 -27.0000000 -22.7400000  17.4410000 -26.4640000 -23.5400000
  17.0850000 -27.0920000 -23.0490000  16.2320000 -25.1940000 -32.5860000
  16.2540000 -25.0780000 -31.6360000  16.4050000 -24.3210000 -32.9370000
  16.2570000 -25.0670000 -32.5090000  15.6070000 -19.2540000 -32.2790000
  15.3430000 -19.2900000 -33.1980000  16.2290000 -19.9750000 -32.1800000
  15.6530000 -19.3510000 -32.3840000  12.7810000 -19.2580000 -34.7680000
  12.2650000 -19.9430000 -34.3420000  12.2980000 -18.4510000 -34.5940000
  12.6530000 -19.2430000 -34.6910000   1.2720000 -31.3470000 -22.3840000
   0.7060000 -30.9860000 -23.0660000   0.7760000 -31.2310000 -21.5740000
   1.1360000 -31.2860000 -22.3680000  12.5180000 -17.7150000 -26.4670000
  13.2930000 -17.8710000 -27.0060000  12.4870000 -16.7640000 -26.3610000
  12.6130000 -17.6130000 -26.5220000   9.0880000 -21.3030000 -32.2380000
   8.8500000 -22.1160000 -31.7940000   8.2830000 -21.0250000 -32.6750000
   8.9550000 -21.3710000 -32.2370000  14.2810000 -21.8830000 -20.9310000
  14.5510000 -22.7870000 -20.7710000  13.3290000 -21.8960000 -20.8300000
  14.1940000 -22.0000000 -20.8970000  14.5910000 -26.1780000 -23.2340000
  13.9810000 -26.9130000 -23.1780000  14.1590000 -25.5530000 -23.8170000
  14.4580000 -26.1920000 -23.3010000   3.6890000 -25.5890000 -24.8090000
   3.2280000 -25.2450000 -25.5740000   3.7700000 -26.5280000 -24.9810000
   3.6400000 -25.6650000 -24.9290000   1.8850000 -27.9480000 -32.6240000
   2.8410000 -27.9160000 -32.5970000   1.6140000 -27.0310000 -32.5860000
   1.9730000 -27.8270000 -32.6160000  12.5530000 -30.3970000 -32.2690000
  13.1730000 -29.9530000 -32.8480000  11.7430000 -29.8930000 -32.3540000
  12.5290000 -30.2750000 -32.3540000  -0.8270000 -24.3450000 -36.3080000
  -0.1990000 -24.8680000 -35.8090000  -0.3330000 -24.0400000 -37.0690000
  -0.6830000 -24.3730000 -36.3410000   4.8450000 -22.2610000 -33.0370000
   4.1450000 -21.8630000 -33.5540000   5.2770000 -22.8640000 -33.6430000
   4.8110000 -22.2870000 -33.1810000  13.4460000 -24.3180000 -25.2150000
  13.2730000 -24.3950000 -26.1530000  14.2290000 -23.7710000 -25.1600000
  13.5240000 -24.2580000 -25.3280000   8.2640000 -27.9350000 -30.8960000
   8.7780000 -28.5340000 -31.4360000   7.9900000 -27.2440000 -31.5000000
   8.2940000 -27.9230000 -31.0420000  15.2920000 -19.3670000 -21.6050000
  15.7010000 -19.1950000 -20.7570000  15.0230000 -20.2840000 -21.5600000
  15.3100000 -19.4620000 -21.4910000  17.9590000 -20.0750000 -34.6070000
  18.5460000 -20.2520000 -35.3420000  17.3680000 -19.3950000 -34.9310000
  17.9580000 -20.0110000 -34.7430000   0.7510000 -20.5800000 -36.8500000
   1.3080000 -21.3380000 -36.6780000   1.3190000 -19.8250000 -36.6940000
   0.8950000 -20.5800000 -36.8080000  17.7990000 -21.7200000 -19.6120000
  17.0270000 -21.6890000 -19.0480000  18.4160000 -21.1100000 -19.2060000
  17.7790000 -21.6380000 -19.4870000  12.7000000 -26.5930000 -19.5430000
  11.8890000 -26.5550000 -20.0500000  13.0640000 -27.4560000 -19.7380000
  12.6430000 -26.6980000 -19.6330000  -0.3550000 -27.9600000 -30.4080000
   0.2420000 -27.7050000 -31.1120000  -0.0520000 -27.4650000 -29.6460000
  -0.2400000 -27.8650000 -30.4010000   2.3260000 -24.4530000 -26.6030000
   2.5850000 -23.7600000 -27.2110000   1.4540000 -24.1940000 -26.3040000
   2.2480000 -24.3310000 -26.6430000  16.0140000 -26.8630000 -29.6220000
  16.8670000 -27.2050000 -29.8920000  16.0360000 -26.8920000 -28.6660000
  16.1260000 -26.9110000 -29.5350000   8.9440000 -29.9520000 -21.7170000
   8.1900000 -30.2820000 -22.2060000   8.7430000 -30.1500000 -20.8030000
   8.8220000 -30.0200000 -21.6630000  12.4940000 -30.6300000 -19.6480000
  11.7100000 -30.6680000 -19.1000000  13.1310000 -31.1800000 -19.1940000
  12.4750000 -30.7050000 -19.5200000  14.1600000 -26.1920000 -34.4070000
  14.5560000 -25.8510000 -33.6050000  14.6510000 -25.7730000 -35.1140000
  14.2730000 -26.0950000 -34.3950000  14.3540000 -19.8360000 -24.9700000
  13.8810000 -19.0030000 -24.9770000  13.8230000 -20.4170000 -25.5140000
  14.2250000 -19.8040000 -25.0400000   3.8650000 -20.9800000 -42.7260000
   2.9110000 -21.0470000 -42.7580000   4.0540000 -20.6720000 -41.8400000
   3.7670000 -20.9480000 -42.6170000   8.9090000 -27.3680000 -41.5870000
   8.7810000 -28.2340000 -41.1980000   9.3520000 -27.5430000 -42.4180000
   8.9490000 -27.5010000 -41.6440000   0.9060000 -26.7010000 -40.4370000
  -0.0150000 -26.9210000 -40.5770000   0.9860000 -26.5940000 -39.4900000
   0.7980000 -26.7160000 -40.3340000  12.2860000 -19.6870000 -47.9800000
  12.8720000 -18.9500000 -48.1550000  11.5040000 -19.5010000 -48.4990000
  12.2610000 -19.5690000 -48.0690000  11.0750000 -31.5470000 -40.4430000
  11.6610000 -31.2340000 -39.7540000  10.3490000 -30.9220000 -40.4430000
  11.0570000 -31.4280000 -40.3550000   5.8090000 -21.3810000 -46.2940000
   5.5480000 -21.7560000 -45.4530000   6.5400000 -21.9260000 -46.5830000
   5.8690000 -21.4990000 -46.2240000   4.0470000 -23.1880000 -47.5790000
   3.3230000 -22.8850000 -48.1270000   4.6410000 -22.4380000 -47.5310000
   4.0310000 -23.0530000 -47.6430000   6.6700000 -30.4710000 -45.9660000
   7.5510000 -30.1800000 -45.7330000   6.7560000 -30.8050000 -46.8580000
   6.7940000 -30.4760000 -46.0510000   0.5640000 -24.0080000 -38.6320000
  -0.1980000 -23.4400000 -38.7490000   0.7690000 -24.3180000 -39.5140000
   0.4920000 -23.9750000 -38.7600000   2.6350000 -22.7130000 -37.2950000
   3.1180000 -22.1530000 -37.9020000   2.1920000 -23.3490000 -37.8560000
   2.6400000 -22.7220000 -37.4440000   6.2610000 -20.9770000 -38.4970000
   6.8350000 -21.0640000 -37.7360000   6.2190000 -20.0350000 -38.6590000
   6.3290000 -20.8680000 -38.4210000  16.0960000 -26.6440000 -45.6600000
  16.5360000 -26.1370000 -44.9770000  15.4240000 -27.1410000 -45.1940000
  16.0670000 -26.6430000 -45.5130000  17.3110000 -24.8760000 -43.4320000
  16.5970000 -24.2710000 -43.6310000  18.0270000 -24.3130000 -43.1350000
  17.3120000 -24.7270000 -43.4190000   6.6160000 -27.1230000 -38.5960000
   6.4590000 -28.0670000 -38.6320000   6.5270000 -26.8310000 -39.5030000
   6.5840000 -27.2070000 -38.7170000  13.9330000 -28.1420000 -44.7400000
  13.0580000 -28.3990000 -45.0300000  14.2850000 -28.9250000 -44.3150000
  13.8660000 -28.2750000 -44.7230000   3.6420000 -21.2260000 -39.5820000
   3.3900000 -20.3220000 -39.3910000   4.5470000 -21.2910000 -39.2790000
   3.7260000 -21.1180000 -39.5190000  11.4040000 -23.6180000 -39.8070000
  11.9860000 -23.7820000 -39.0660000  10.8110000 -22.9320000 -39.4990000
  11.4020000 -23.5510000 -39.6730000   7.7060000 -23.1550000 -47.0680000
   7.2260000 -23.9620000 -46.8910000   8.4360000 -23.1680000 -46.4490000
   7.7380000 -23.2600000 -46.9660000  21.1180000 -30.2370000 -48.6840000
  21.1320000 -30.5500000 -47.7790000  21.0690000 -29.2840000 -48.6070000
  21.1140000 -30.1550000 -48.5580000   7.2490000 -30.6530000 -42.6810000
   6.4040000 -30.9730000 -42.3640000   7.7220000 -31.4440000 -42.9400000
   7.2010000 -30.7950000 -42.6730000   4.1760000 -25.4670000 -38.3470000
   4.9870000 -25.9550000 -38.4890000   3.9070000 -25.1900000 -39.2230000
   4.2450000 -25.4940000 -38.4780000   6.4380000 -26.4280000 -41.3190000
   7.3180000 -26.8000000 -41.3710000   5.9000000 -27.0080000 -41.8560000
   6.4820000 -26.5490000 -41.3940000  15.4270000 -22.7160000 -42.9620000
  15.0760000 -22.8190000 -42.0770000  15.5750000 -21.7740000 -43.0520000
  15.4010000 -22.6090000 -42.8600000  17.5640000 -20.9490000 -41.0830000
  17.7620000 -21.3450000 -40.2330000  16.8930000 -20.2940000 -40.8920000
  17.5030000 -20.9160000 -40.9500000  12.8820000 -28.1700000 -41.6700000
  12.3250000 -28.5650000 -42.3420000  12.3060000 -27.5600000 -41.2100000
  12.7370000 -28.1420000 -41.6970000  16.7960000 -28.9090000 -38.4760000
  15.9730000 -28.5690000 -38.8250000  16.6520000 -28.9650000 -37.5310000
  16.6730000 -28.8730000 -38.4000000   3.7210000 -28.5920000 -44.0440000
   3.3440000 -28.7190000 -43.1740000   3.1580000 -29.1030000 -44.6260000
   3.6010000 -28.6730000 -44.0070000  12.7280000 -27.0820000 -48.5890000
  13.2730000 -26.5810000 -47.9820000  12.0340000 -26.4750000 -48.8460000
  12.7090000 -26.9410000 -48.5440000   0.7110000 -25.5160000 -47.7680000
   1.1050000 -25.5860000 -48.6380000   1.3230000 -25.9710000 -47.1900000
   0.8400000 -25.5830000 -47.8060000  11.3680000 -19.9930000 -42.7990000
  10.8190000 -20.0620000 -43.5790000  11.7320000 -20.8700000 -42.6830000
  11.3450000 -20.1140000 -42.8840000   5.8020000 -29.9980000 -38.8480000
   5.6870000 -30.2820000 -39.7550000   4.9110000 -29.8950000 -38.5150000
   5.6730000 -30.0210000 -38.9220000   6.2320000 -25.4800000 -45.9700000
   6.1920000 -26.4350000 -46.0070000   5.7770000 -25.2510000 -45.1600000
   6.1690000 -25.5720000 -45.8710000  14.1970000 -28.8260000 -39.2880000
  13.5060000 -29.4660000 -39.1200000  13.9890000 -28.4700000 -40.1510000
  14.0820000 -28.8630000 -39.3770000  10.0750000 -22.8680000 -45.5600000
  10.0110000 -23.3880000 -44.7580000  10.6200000 -22.1190000 -45.3170000
  10.1360000 -22.8390000 -45.4260000   1.8870000 -19.7800000 -47.7810000
   1.3450000 -19.3570000 -47.1140000   2.7860000 -19.5830000 -47.5190000
   1.9320000 -19.7000000 -47.6620000   3.4280000 -25.7150000 -40.8610000
   3.3900000 -25.3980000 -41.7630000   2.5560000 -26.0740000 -40.6960000
   3.3110000 -25.7210000 -40.9550000   7.3360000 -23.9750000 -42.2860000
   6.5530000 -23.5690000 -42.6550000   7.0480000 -24.8460000 -42.0130000
   7.1990000 -24.0350000 -42.2980000   1.0740000 -21.9630000 -45.5430000
   1.7290000 -21.6020000 -46.1400000   0.3960000 -22.3180000 -46.1180000
   1.0710000 -21.9620000 -45.6930000   6.3620000 -28.0180000 -43.8070000
   6.6870000 -28.8210000 -43.4000000   5.4930000 -28.2500000 -44.1330000
   6.2920000 -28.1500000 -43.7970000   1.9780000 -27.0850000 -37.8380000
   2.7810000 -26.5740000 -37.9470000   1.5280000 -26.6660000 -37.1040000
   2.0230000 -26.9650000 -37.7580000  17.1620000 -19.1650000 -46.5100000
  17.0150000 -20.1070000 -46.4280000  17.8160000 -18.9660000 -45.8390000
  17.2270000 -19.2600000 -46.4140000  18.4950000 -22.8860000 -47.7240000
  17.6510000 -22.4730000 -47.5400000  18.3630000 -23.8080000 -47.5060000
  18.3700000 -22.9510000 -47.6730000   9.7950000 -29.3400000 -47.9550000
   9.3880000 -28.5800000 -48.3710000  10.6570000 -29.4050000 -48.3650000
   9.8530000 -29.2510000 -48.0610000   2.4860000 -27.6100000 -46.9700000
   3.4430000 -27.6260000 -46.9890000   2.2410000 -28.4240000 -46.5300000
   2.5770000 -27.7160000 -46.9160000  17.9540000 -28.6720000 -45.4870000
  17.5650000 -29.1460000 -44.7510000  17.4190000 -27.8830000 -45.5730000
  17.8360000 -28.6320000 -45.4040000   9.8630000 -24.2470000 -43.1220000
  10.2560000 -23.4260000 -42.8260000   8.9500000 -24.1920000 -42.8400000
   9.7970000 -24.1350000 -43.0480000  15.0870000 -30.9640000 -43.9730000
  14.8220000 -31.6150000 -43.3230000  15.3060000 -31.4760000 -44.7510000
  15.0810000 -31.1120000 -43.9890000   5.3340000 -28.1730000 -47.1960000
   5.5910000 -28.5910000 -48.0180000   5.4180000 -28.8650000 -46.5400000
   5.3780000 -28.3150000 -47.2170000  12.6460000 -23.7180000 -46.7370000
  12.7440000 -23.4710000 -47.6570000  11.7920000 -23.3680000 -46.4850000
  12.5490000 -23.6420000 -46.8220000  13.7340000 -21.2920000 -46.1980000
  13.1900000 -20.6920000 -46.7090000  13.3430000 -22.1530000 -46.3440000
  13.6150000 -21.3250000 -46.2820000  17.5090000 -29.8830000 -42.5750000
  16.6130000 -30.2080000 -42.6620000  17.4090000 -28.9880000 -42.2500000
  17.3810000 -29.8100000 -42.5440000   7.8260000 -18.9240000 -47.2250000
   7.7920000 -19.6110000 -46.5600000   8.3020000 -19.3190000 -47.9550000
   7.8820000 -19.0620000 -47.2330000   9.3370000 -30.8150000 -45.4210000
   8.8880000 -31.5690000 -45.0390000  10.0590000 -31.1950000 -45.9210000
   9.3720000 -30.9600000 -45.4360000  10.8720000 -26.6910000 -43.7090000
  10.5960000 -25.8670000 -43.3070000  11.8230000 -26.7050000 -43.6000000
  10.9590000 -26.5870000 -43.6440000  10.2280000 -19.4680000 -45.4600000
  11.0180000 -18.9300000 -45.5140000   9.6280000 -19.0760000 -46.0940000
  10.2520000 -19.3490000 -45.5480000   2.2580000 -28.8430000 -41.5720000
   1.5790000 -28.2050000 -41.3520000   1.8490000 -29.6920000 -41.4090000
   2.1180000 -28.8700000 -41.5230000  11.3230000 -28.4010000 -45.6230000
  11.0550000 -27.7580000 -44.9650000  10.5240000 -28.5830000 -46.1190000
  11.1860000 -28.3420000 -45.6030000  -0.1350000 -30.7630000 -39.0030000
  -0.7350000 -30.0300000 -38.8620000   0.4120000 -30.7800000 -38.2170000
  -0.1420000 -30.6710000 -38.8840000  11.3000000 -30.0670000 -43.0610000
  11.1370000 -29.7580000 -43.9520000  10.4390000 -30.3310000 -42.7380000
  11.1690000 -30.0610000 -43.1330000  11.2320000 -26.4050000 -40.5250000
  10.4140000 -26.5600000 -40.9960000  11.2800000 -25.4520000 -40.4360000
  11.1340000 -26.3030000 -40.5740000   1.6110000 -29.9260000 -45.7720000
   0.8320000 -29.4200000 -45.5410000   1.3490000 -30.8390000 -45.6490000
   1.4780000 -29.9780000 -45.7270000  17.0550000 -20.4310000 -43.7250000
  17.3370000 -20.5280000 -42.8150000  16.2740000 -19.8800000 -43.6760000
  16.9910000 -20.3730000 -43.6020000   4.7070000 -25.7690000 -48.6660000
   4.6200000 -24.9890000 -48.1170000   4.7790000 -26.4930000 -48.0430000
   4.7050000 -25.7620000 -48.5160000   4.8090000 -30.6280000 -41.4820000
   4.7180000 -30.7480000 -42.4270000   4.0850000 -30.0500000 -41.2440000
   4.7050000 -30.5690000 -41.5730000   1.0790000 -20.5640000 -43.1390000
   0.7860000 -20.8370000 -44.0090000   0.7710000 -19.6620000 -43.0550000
   1.0020000 -20.4840000 -43.2400000   4.9940000 -23.2000000 -43.7410000
   4.4240000 -22.5130000 -43.3940000   4.5420000 -24.0160000 -43.5270000
   4.8630000 -23.2160000 -43.6690000  11.8520000 -22.6550000 -42.3420000
  11.6490000 -22.9650000 -41.4600000  12.3660000 -23.3630000 -42.7320000
  11.8920000 -22.7860000 -42.2790000  14.4970000 -25.0530000 -39.6950000
  13.8570000 -25.5860000 -39.2230000  14.4590000 -25.3760000 -40.5960000
  14.4100000 -25.1630000 -39.7500000   8.2640000 -22.6850000 -39.5600000
   7.8770000 -23.0500000 -40.3560000   7.6160000 -22.0560000 -39.2450000
   8.1310000 -22.6530000 -39.6210000   0.6240000 -23.3310000 -42.1900000
   0.2420000 -22.4880000 -41.9470000   1.4480000 -23.1050000 -42.6220000
   0.6800000 -23.1940000 -42.2150000  17.1640000 -27.2160000 -41.8780000
  16.2730000 -27.0000000 -41.6000000  17.4410000 -26.4640000 -42.4000000
  17.0850000 -27.0920000 -41.9090000   1.2720000 -31.3470000 -41.2440000
   0.7060000 -30.9860000 -41.9260000   0.7760000 -31.2310000 -40.4340000
   1.1360000 -31.2860000 -41.2280000  12.5180000 -17.7150000 -45.3270000
  13.2930000 -17.8710000 -45.8660000  12.4870000 -16.7640000 -45.2210000
  12.6130000 -17.6130000 -45.3820000  14.2810000 -21.8830000 -39.7910000
  14.5510000 -22.7870000 -39.6310000  13.3290000 -21.8960000 -39.6900000
  14.1940000 -22.0000000 -39.7570000  14.5910000 -26.1780000 -42.0940000
  13.9810000 -26.9130000 -42.0380000  14.1590000 -25.5530000 -42.6770000
  14.4580000 -26.1920000 -42.1610000   3.6890000 -25.5890000 -43.6690000
   3.2280000 -25.2450000 -44.4340000   3.7700000 -26.5280000 -43.8400000
   3.6400000 -25.6650000 -43.7890000  13.4460000 -24.3180000 -44.0750000
  13.2730000 -24.3950000 -45.0130000  14.2290000 -23.7710000 -44.0200000
  13.5240000 -24.2580000 -44.1880000  15.2920000 -19.3670000 -40.4650000
  15.7010000 -19.1950000 -39.6170000  15.0230000 -20.2840000 -40.4200000
  15.3100000 -19.4620000 -40.3510000  17.7990000 -21.7200000 -38.4720000
  17.0270000 -21.6890000 -37.9080000  18.4160000 -21.1100000 -38.0660000
  17.7790000 -21.6380000 -38.3470000  12.7000000 -26.5930000 -38.4030000
  11.8890000 -26.5550000 -38.9100000  13.0640000 -27.4560000 -38.5980000
  12.6430000 -26.6980000 -38.4930000   2.3260000 -24.4530000 -45.4630000
   2.5850000 -23.7600000 -46.0710000   1.4540000 -24.1940000 -45.1640000
   2.2480000 -24.3310000 -45.5030000  16.0140000 -26.8630000 -48.4820000
  16.8670000 -27.2050000 -48.7520000  16.0360000 -26.8920000 -47.5260000
  16.1260000 -26.9110000 -48.3950000   8.9440000 -29.9520000 -40.5770000
   8.1900000 -30.2820000 -41.0650000   8.7430000 -30.1500000 -39.6630000
   8.8220000 -30.0200000 -40.5230000  12.4940000 -30.6300000 -38.5080000
  11.7100000 -30.6680000 -37.9600000  13.1310000 -31.1800000 -38.0540000
  12.4750000 -30.7050000 -38.3800000  14.3540000 -19.8360000 -43.8300000
  13.8810000 -19.0030000 -43.8370000  13.8230000 -20.4170000 -44.3740000
  14.2250000 -19.8040000 -43.9000000 -13.6590000  27.9630000  40.0680000
 -13.8140000  28.4200000  40.8950000 -12.9470000  27.3530000  40.2600000
 -13.5880000  27.9430000  40.1980000  -2.4010000  21.6260000  43.4400000
  -2.3330000  20.6790000  43.3170000  -1.5320000  21.8910000  43.7420000
  -2.2810000  21.5390000  43.4640000  -1.2820000  25.9170000  45.2820000
  -2.0610000  26.0270000  45.8270000  -0.9380000  26.8030000  45.1720000
  -1.3380000  26.0440000  45.3370000 -10.1860000  22.0450000  39.4300000
 -10.4520000  21.5820000  40.2240000 -10.1700000  21.3680000  38.7530000
 -10.2180000  21.8990000  39.4450000  -7.0750000  30.1850000  39.7320000
  -6.3050000  30.2060000  40.2990000  -6.7560000  29.8180000  38.9090000
  -6.9360000  30.1410000  39.6990000  -1.3390000  29.8220000  41.4630000
  -1.7050000  30.4630000  42.0730000  -2.1040000  29.4000000  41.0700000
  -1.4840000  29.8500000  41.4900000  -3.0140000  21.8520000  40.5670000
  -2.8820000  21.7080000  41.5050000  -3.8820000  22.2510000  40.5070000
  -3.1080000  21.8840000  40.6800000 -14.2520000  24.1690000  44.8400000
 -14.6590000  24.1680000  43.9730000 -14.7380000  24.8320000  45.3320000
 -14.3660000  24.2540000  44.7930000 -14.8250000  21.3560000  43.5580000
 -15.5840000  21.3430000  44.1430000 -14.2930000  20.6120000  43.8390000
 -14.8540000  21.2590000  43.6690000 -10.1650000  25.5550000  43.3890000
 -10.9900000  25.5370000  42.9040000 -10.4160000  25.3690000  44.2940000
 -10.3030000  25.5290000  43.4430000 -15.3400000  27.1770000  38.0590000
 -15.9430000  27.9140000  37.9640000 -14.7110000  27.4670000  38.7200000
 -15.3370000  27.3080000  38.1320000 -12.1900000  26.1300000  48.3340000
 -11.3090000  26.4220000  48.5670000 -12.1040000  25.7960000  47.4420000
 -12.0660000  26.1250000  48.2500000  -7.8930000  21.9490000  46.5180000
  -8.8450000  21.8860000  46.5890000  -7.5650000  21.2210000  47.0470000
  -7.9730000  21.8480000  46.5950000  -2.7640000  29.9570000  48.6400000
  -2.3240000  30.4640000  49.3230000  -3.4360000  29.4600000  49.1070000
  -2.7930000  29.9580000  48.7870000  -5.4140000  23.2740000  40.3820000
  -5.3100000  23.6180000  41.2690000  -5.5440000  24.0500000  39.8380000
  -5.4170000  23.4170000  40.4270000  -2.7720000  24.1220000  47.7090000
  -1.8600000  24.1330000  48.0030000  -2.7720000  23.5370000  46.9520000
  -2.6550000  24.0480000  47.6500000 -13.1850000  20.4480000  38.3690000
 -12.8430000  20.4570000  39.2630000 -13.6700000  21.2700000  38.2910000
 -13.2030000  20.5550000  38.4730000 -18.0160000  20.3640000  48.2730000
 -17.1830000  20.8180000  48.1500000 -18.6040000  20.7630000  47.6330000
 -17.9850000  20.4730000  48.1770000 -10.5820000  24.9590000  46.0230000
 -10.4960000  24.1750000  46.5670000 -10.1420000  25.6460000  46.5230000
 -10.5150000  24.9470000  46.1570000  -3.4860000  19.0980000  40.2380000
  -3.3580000  20.0130000  39.9860000  -4.4350000  19.0030000  40.3220000
  -3.5910000  19.2030000  40.2170000  -0.3110000  20.4360000  38.2380000
  -0.4870000  21.2770000  37.8170000  -1.1200000  19.9370000  38.1240000
  -0.4370000  20.4800000  38.1710000   2.2580000  26.3640000  45.6170000
   2.2720000  26.0510000  46.5220000   2.2090000  27.3170000  45.6930000
   2.2540000  26.4460000  45.7430000  -8.3490000  24.3000000  39.5000000
  -8.9750000  23.5760000  39.5230000  -8.1310000  24.4590000  40.4170000
  -8.4010000  24.2280000  39.6190000  -2.1770000  27.2650000  39.5000000
  -2.6340000  27.0240000  40.3070000  -1.2510000  27.1250000  39.6990000
  -2.1170000  27.2160000  39.6300000  -4.0520000  22.9820000  45.0890000
  -3.3560000  22.5960000  44.5550000  -4.6620000  22.2600000  45.2430000
  -4.0410000  22.8400000  45.0400000  -8.1510000  24.4180000  42.1630000
  -8.9740000  24.7010000  42.5590000  -7.4730000  24.8040000  42.7180000
  -8.1690000  24.5030000  42.2850000  -6.1320000  29.5190000  45.7120000
  -5.5870000  30.0200000  46.3180000  -6.8260000  30.1260000  45.4550000
  -6.1510000  29.6600000  45.7570000 -18.1490000  31.0850000  46.5320000
 -17.7550000  31.0150000  45.6620000 -17.5370000  30.6300000  47.1100000
 -18.0200000  31.0180000  46.4940000  -3.4280000  26.7650000  41.9040000
  -3.4710000  27.3840000  42.6350000  -3.7940000  25.9540000  42.2570000
  -3.4800000  26.7410000  42.0430000  -8.6780000  27.6290000  42.3830000
  -9.3500000  26.9480000  42.4130000  -8.5990000  27.8460000  41.4550000
  -8.7540000  27.5700000  42.2680000 -12.6280000  31.1220000  48.3300000
 -12.6680000  30.1670000  48.2930000 -13.0840000  31.3500000  49.1400000
 -12.6910000  31.0290000  48.4300000 -19.0450000  26.8770000  42.1500000
 -18.3800000  27.4770000  42.4880000 -19.8770000  27.3110000  42.3390000
 -19.0660000  27.0090000  42.2180000 -11.2980000  30.0580000  39.4390000
 -11.6810000  29.7490000  38.6170000 -11.0590000  30.9690000  39.2630000
 -11.3160000  30.1350000  39.3120000 -17.0420000  21.5130000  45.1170000
 -17.2800000  20.6940000  44.6830000 -17.8030000  22.0810000  44.9890000
 -17.1700000  21.4810000  45.0440000 -12.4710000  20.3280000  41.1200000
 -12.2260000  19.4530000  41.4220000 -12.6860000  20.8050000  41.9220000
 -12.4670000  20.2770000  41.2610000  -7.2390000  22.0770000  43.6580000
  -7.5330000  22.7920000  43.0940000  -7.5100000  22.3380000  44.5380000
  -7.3110000  22.2020000  43.6980000 -15.6340000  24.5930000  39.1540000
 -16.5580000  24.3500000  39.1920000 -15.6370000  25.5130000  38.8890000
 -15.7510000  24.6800000  39.1250000 -13.6640000  28.9460000  42.4430000
 -12.8410000  29.4320000  42.4050000 -13.6130000  28.4510000  43.2600000
 -13.5520000  28.9450000  42.5430000 -11.3690000  30.5830000  42.4450000
 -11.8920000  31.2860000  42.8320000 -11.3570000  30.7790000  41.5100000
 -11.4340000  30.6980000  42.3750000  -4.3260000  25.4500000  38.6100000
  -3.8480000  25.0970000  37.8610000  -3.8240000  26.2220000  38.8720000
  -4.2010000  25.5040000  38.5470000  -2.4740000  16.5300000  48.0080000
  -2.3280000  16.9350000  48.8630000  -3.4190000  16.5980000  47.8690000
  -2.5760000  16.5900000  48.1010000  -6.3860000  26.6650000  45.7230000
  -5.8880000  26.4580000  44.9320000  -6.2020000  27.5900000  45.8870000
  -6.2990000  26.7570000  45.6420000 -11.7610000  25.4110000  39.4640000
 -12.2420000  24.5940000  39.3320000 -11.3270000  25.5700000  38.6250000
 -11.7670000  25.3270000  39.3390000 -17.7970000  30.4480000  39.9210000
 -17.0300000  30.1250000  40.3970000 -18.5400000  30.2090000  40.4760000
 -17.7950000  30.3760000  40.0530000  -9.0650000  27.2610000  46.3450000
  -9.4720000  28.0210000  45.9300000  -8.2030000  27.1960000  45.9350000
  -9.0070000  27.3500000  46.2390000  -4.5280000  28.5000000  43.8270000
  -3.8540000  28.9120000  44.3680000  -5.3380000  28.9460000  44.0730000
  -4.5450000  28.6100000  43.9280000 -16.3740000  28.9910000  47.3300000
 -15.4170000  28.9750000  47.3120000 -16.6190000  28.1770000  47.7700000
 -16.2840000  28.8850000  47.3850000  -7.5320000  24.4770000  47.6800000
  -6.9060000  24.9270000  47.1130000  -7.6740000  23.6300000  47.2550000
  -7.4700000  24.4260000  47.5530000  -7.5080000  21.2220000  40.4360000
  -8.2670000  21.4700000  39.9070000  -6.9530000  22.0020000  40.4370000
  -7.5340000  21.3540000  40.3680000 -14.9740000  24.5150000  42.1530000
 -15.0640000  24.2440000  41.2390000 -15.8710000  24.6720000  42.4450000
 -15.1000000  24.5010000  42.0730000  -5.3860000  20.4060000  44.9480000
  -6.0480000  20.8120000  44.3880000  -4.6910000  20.1430000  44.3450000
  -5.3820000  20.4250000  44.8000000 -13.0270000  27.4310000  44.5530000
 -12.8390000  26.6790000  43.9900000 -12.1710000  27.8220000  44.7230000
 -12.8940000  27.3850000  44.5030000 -14.3800000  19.3010000  46.7120000
 -14.2090000  20.2220000  46.9100000 -13.8140000  18.8170000  47.3120000
 -14.2860000  19.3570000  46.8140000 -13.5260000  28.4280000  47.1050000
 -13.2690000  28.0100000  46.2820000 -13.4420000  27.7360000  47.7600000
 -13.4820000  28.2860000  47.0830000  -9.1550000  28.4050000  39.7630000
  -8.4250000  29.0250000  39.7530000  -9.9370000  28.9560000  39.7320000
  -9.1620000  28.5550000  39.7570000  -9.5230000  25.7860000  48.8800000
  -9.9720000  25.0320000  49.2620000  -8.8010000  25.4060000  48.3800000
  -9.4880000  25.6410000  48.8640000 -12.5000000  22.5230000  42.8630000
 -12.6480000  23.4660000  42.7840000 -13.2920000  22.1910000  43.2870000
 -12.6200000  22.6010000  42.9070000 -13.2440000  23.0120000  39.4570000
 -14.1610000  22.7970000  39.6230000 -12.7690000  22.6240000  40.1920000
 -13.3010000  22.9350000  39.5720000  -7.5370000  28.2000000  48.6780000
  -7.8050000  28.8430000  49.3350000  -8.3360000  28.0180000  48.1820000
  -7.6740000  28.2590000  48.6980000 -17.6400000  24.7390000  43.3400000
 -17.2390000  25.3240000  43.9850000 -18.1030000  25.3240000  42.7420000
 -17.6470000  24.8890000  43.3470000 -15.6790000  19.4180000  39.3850000
 -15.6780000  20.1600000  39.9890000 -15.1750000  19.7220000  38.6320000
 -15.6140000  19.5520000  39.3670000 -17.2500000  26.6750000  48.5280000
 -18.0280000  27.1810000  48.7600000 -17.5120000  25.7620000  48.6520000
 -17.3820000  26.6230000  48.5730000 -14.1530000  30.8320000  45.6350000
 -14.2400000  31.6120000  46.1830000 -14.0810000  30.1080000  46.2570000
 -14.1550000  30.8390000  45.7840000 -18.5220000  21.9160000  40.8390000
 -18.5790000  21.6620000  39.9180000 -19.0700000  22.6980000  40.9070000
 -18.6000000  21.9840000  40.7300000 -12.9690000  19.4890000  44.2700000
 -13.3740000  19.1580000  45.0730000 -12.8620000  18.7150000  43.7180000
 -13.0070000  19.3480000  44.3030000 -12.4260000  25.5350000  42.1570000
 -12.0530000  25.4700000  41.2780000 -13.3310000  25.2390000  42.0550000
 -12.4940000  25.4880000  42.0320000 -10.2810000  22.4320000  44.5410000
 -11.1330000  22.2940000  44.1300000 -10.2310000  23.3790000  44.6780000
 -10.3830000  22.5360000  44.5070000  -9.2360000  26.1030000  37.7800000
  -9.2550000  26.7530000  38.4820000  -8.8810000  25.3150000  38.1920000
  -9.1930000  26.0860000  37.9220000  -9.5630000  20.6060000  42.6320000
  -9.7880000  21.3910000  43.1320000  -8.6640000  20.7580000  42.3400000
  -9.4760000  20.7260000  42.6590000  -4.1360000  20.3260000  47.5030000
  -3.2650000  19.9330000  47.5590000  -4.2350000  20.5570000  46.5800000
  -4.0370000  20.3050000  47.3920000  -4.1110000  24.1910000  42.7500000
  -4.3320000  23.9410000  43.6480000  -3.2950000  23.7250000  42.5680000
  -4.0350000  24.0990000  42.8430000 -10.3080000  22.7410000  47.9180000
 -11.1590000  22.3100000  47.8300000 -10.2090000  22.8880000  48.8580000
 -10.4050000  22.7050000  48.0270000  -1.4200000  24.2150000  40.5870000
  -2.2430000  23.7280000  40.5380000  -1.6720000  25.0790000  40.9150000
  -1.5570000  24.2630000  40.6220000 -16.3340000  22.8960000  47.5320000
 -16.4270000  22.4290000  46.7020000 -15.5100000  22.5730000  47.8970000
 -16.2400000  22.7950000  47.4730000 -16.9750000  28.6530000  42.8170000
 -16.0190000  28.6850000  42.8430000 -17.2460000  29.5700000  42.8550000
 -16.8870000  28.7740000  42.8250000 -15.6160000  21.9430000  40.7870000
 -15.3090000  22.0080000  41.6920000 -16.5350000  21.6850000  40.8670000
 -15.6940000  21.9180000  40.9130000  -6.3070000  26.2040000  43.1720000
  -5.6870000  26.6480000  42.5930000  -7.1170000  26.7080000  43.0870000
  -6.3310000  26.3260000  43.0870000 -10.5960000  28.6670000  44.5440000
 -10.0820000  28.0670000  44.0050000 -10.8700000  29.3570000  43.9400000
 -10.5660000  28.6780000  44.3980000  -0.5390000  23.2320000  44.5890000
   0.0430000  23.7170000  44.0030000  -1.1050000  23.9020000  44.9730000
  -0.5370000  23.3800000  44.5640000 -12.8200000  22.0510000  46.4550000
 -12.9980000  22.6410000  45.7230000 -12.3350000  21.3240000  46.0650000
 -12.7810000  22.0340000  46.3120000 -19.2150000  28.6410000  45.0320000
 -18.6180000  28.8970000  44.3280000 -18.9120000  29.1360000  45.7940000
 -19.1000000  28.7370000  45.0400000  -2.8460000  29.7380000  45.8180000
  -1.9930000  29.3970000  45.5480000  -2.8240000  29.7090000  46.7750000
  -2.7340000  29.6900000  45.9050000  -0.7700000  19.7640000  45.3270000
  -1.3660000  19.4140000  45.9880000  -0.0520000  19.1320000  45.2910000
  -0.7540000  19.6390000  45.4070000  -4.7000000  30.4090000  41.0330000
  -4.3040000  30.7500000  41.8350000  -4.2090000  30.8280000  40.3270000
  -4.5870000  30.5060000  41.0460000 -12.3940000  21.4360000  32.4540000
 -12.1660000  21.4080000  33.3830000 -13.0230000  20.7240000  32.3410000
 -12.4450000  21.3410000  32.5590000 -14.4780000  19.7220000  31.9600000
 -15.0380000  20.1700000  32.5940000 -14.6240000  18.7910000  32.1270000
 -14.5680000  19.6600000  32.0620000 -13.6590000  27.9630000  21.2080000
 -13.8140000  28.4200000  22.0350000 -12.9470000  27.3530000  21.4000000
 -13.5880000  27.9430000  21.3380000 -10.2640000  23.1720000  31.8130000
 -10.8670000  22.5310000  32.1880000  -9.4750000  23.1030000  32.3510000
 -10.2400000  23.0820000  31.9300000  -9.7260000  19.6090000  38.0910000
  -8.8340000  19.3800000  37.8270000 -10.2480000  19.4880000  37.2980000
  -9.6780000  19.5650000  37.9570000  -7.8410000  22.9980000  33.0820000
  -7.6630000  22.1160000  33.4070000  -7.5220000  23.5780000  33.7730000
  -7.7770000  22.9590000  33.2120000  -2.4010000  21.6260000  24.5800000
  -2.3330000  20.6790000  24.4560000  -1.5320000  21.8910000  24.8810000
  -2.2810000  21.5390000  24.6030000  -1.2820000  25.9170000  26.4210000
  -2.0610000  26.0270000  26.9660000  -0.9380000  26.8030000  26.3120000
  -1.3380000  26.0440000  26.4770000 -10.1860000  22.0450000  20.5690000
 -10.4520000  21.5820000  21.3640000 -10.1700000  21.3680000  19.8930000
 -10.2180000  21.8990000  20.5850000  -9.9510000  29.2330000  33.8530000
 -10.0790000  28.3680000  34.2420000  -9.5080000  29.0580000  33.0220000
  -9.9110000  29.1000000  33.7960000  -7.0750000  30.1850000  20.8720000
  -6.3050000  30.2060000  21.4390000  -6.7560000  29.8180000  20.0480000
  -6.9360000  30.1410000  20.8390000  -1.3390000  29.8220000  22.6020000
  -1.7050000  30.4630000  23.2120000  -2.1040000  29.4000000  22.2100000
  -1.4840000  29.8500000  22.6300000 -18.8270000  23.5630000  32.4100000
 -18.5500000  24.1320000  33.1280000 -19.4290000  22.9400000  32.8170000
 -18.8680000  23.5560000  32.5540000 -17.9540000  29.9000000  35.0030000
 -18.8750000  29.6800000  34.8630000 -17.8750000  30.0070000  35.9500000
 -18.0620000  29.8850000  35.1060000  -3.0140000  21.8520000  21.7070000
  -2.8820000  21.7080000  22.6440000  -3.8820000  22.2510000  21.6470000
  -3.1080000  21.8840000  21.8200000 -14.2520000  24.1690000  25.9800000
 -14.6590000  24.1680000  25.1130000 -14.7380000  24.8320000  26.4710000
 -14.3660000  24.2540000  25.9320000 -16.1340000  20.5650000  33.9980000
 -15.9260000  21.4630000  34.2550000 -16.4890000  20.1640000  34.7910000
 -16.1520000  20.6280000  34.1320000 -14.8250000  21.3560000  24.6980000
 -15.5840000  21.3430000  25.2830000 -14.2930000  20.6120000  24.9790000
 -14.8540000  21.2590000  24.8090000  -7.7850000  25.0540000  34.9970000
  -7.1990000  25.3670000  35.6860000  -8.5110000  25.6790000  34.9970000
  -7.8030000  25.1740000  35.0850000 -10.1650000  25.5550000  24.5290000
 -10.9900000  25.5370000  24.0440000 -10.4160000  25.3690000  25.4340000
 -10.3030000  25.5290000  24.5830000 -18.2650000  23.5670000  38.0510000
 -18.4630000  23.6480000  37.1190000 -19.0580000  23.8700000  38.4920000
 -18.3910000  23.6160000  37.9880000 -15.3400000  27.1770000  19.1990000
 -15.9430000  27.9140000  19.1030000 -14.7110000  27.4670000  19.8600000
 -15.3370000  27.3080000  19.2710000 -12.1900000  26.1300000  29.4740000
 -11.3090000  26.4220000  29.7060000 -12.1040000  25.7960000  28.5810000
 -12.0660000  26.1250000  29.3890000  -7.8930000  21.9490000  27.6580000
  -8.8450000  21.8860000  27.7290000  -7.5650000  21.2210000  28.1860000
  -7.9730000  21.8480000  27.7350000  -2.7640000  29.9570000  29.7800000
  -2.3240000  30.4640000  30.4630000  -3.4360000  29.4600000  30.2460000
  -2.7930000  29.9580000  29.9270000 -12.2440000  29.4780000  36.8440000
 -12.4010000  28.5340000  36.8080000 -12.3340000  29.7700000  35.9370000
 -12.2760000  29.3940000  36.7230000  -5.4140000  23.2740000  21.5220000
  -5.3100000  23.6180000  22.4090000  -5.5440000  24.0500000  20.9770000
  -5.4170000  23.4170000  21.5660000  -2.7720000  24.1220000  28.8490000
  -1.8600000  24.1330000  29.1420000  -2.7720000  23.5370000  28.0910000
  -2.6550000  24.0480000  28.7900000  -4.9270000  28.4590000  30.7000000
  -5.8020000  28.2020000  30.4100000  -4.5750000  27.6760000  31.1240000
  -4.9940000  28.3260000  30.7170000 -13.1850000  20.4480000  19.5090000
 -12.8430000  20.4570000  20.4030000 -13.6700000  21.2700000  19.4310000
 -13.2030000  20.5550000  19.6130000 -18.0160000  20.3640000  29.4130000
 -17.1830000  20.8180000  29.2890000 -18.6040000  20.7630000  28.7730000
 -17.9850000  20.4730000  29.3160000 -16.9170000  19.4970000  36.4250000
 -17.7500000  19.0700000  36.6260000 -16.9510000  20.3240000  36.9050000
 -17.0280000  19.5480000  36.5120000 -10.5820000  24.9590000  27.1630000
 -10.4960000  24.1750000  27.7060000 -10.1420000  25.6460000  27.6630000
 -10.5150000  24.9470000  27.2960000  -1.9200000  22.5770000  36.5030000
  -2.8190000  22.2490000  36.4980000  -1.5950000  22.4000000  35.6210000
  -1.9940000  22.5120000  36.3900000  -3.4860000  19.0980000  21.3770000
  -3.3580000  20.0130000  21.1250000  -4.4350000  19.0030000  21.4620000
  -3.5910000  19.2030000  21.3560000  -0.3110000  20.4360000  19.3780000
  -0.4870000  21.2770000  18.9570000  -1.1200000  19.9370000  19.2640000
  -0.4370000  20.4800000  19.3100000   2.2580000  26.3640000  26.7560000
   2.2720000  26.0510000  27.6610000   2.2090000  27.3170000  26.8330000
   2.2540000  26.4460000  26.8820000  -8.3490000  24.3000000  20.6390000
  -8.9750000  23.5760000  20.6630000  -8.1310000  24.4590000  21.5570000
  -8.4010000  24.2280000  20.7590000 -11.6110000  25.9480000  32.7600000
 -12.4560000  25.6280000  33.0760000 -11.1380000  25.1570000  32.5000000
 -11.6590000  25.8060000  32.7670000 -14.6840000  31.1340000  37.0930000
 -13.8730000  30.6460000  36.9510000 -14.9530000  31.4110000  36.2170000
 -14.6150000  31.1070000  36.9620000  -1.8830000  21.8150000  33.9340000
  -2.7490000  21.6510000  33.5630000  -1.3010000  21.2230000  33.4570000
  -1.9190000  21.7180000  33.8250000  -2.1770000  27.2650000  20.6400000
  -2.6340000  27.0240000  21.4460000  -1.2510000  27.1250000  20.8390000
  -2.1170000  27.2160000  20.7690000 -12.4220000  30.1740000  34.1210000
 -11.5420000  29.8010000  34.0690000 -12.9600000  29.5930000  33.5840000
 -12.3780000  30.0520000  34.0460000  -4.0520000  22.9820000  26.2280000
  -3.3560000  22.5960000  25.6950000  -4.6620000  22.2600000  26.3830000
  -4.0410000  22.8400000  26.1790000  -5.9780000  28.4310000  33.7700000
  -6.5350000  28.0370000  33.0980000  -6.5540000  29.0410000  34.2300000
  -6.1230000  28.4590000  33.7430000  -2.0640000  27.6920000  36.9640000
  -2.8870000  28.0320000  36.6150000  -2.2080000  27.6360000  37.9090000
  -2.1870000  27.7280000  37.0410000  -8.1510000  24.4180000  23.3030000
  -8.9740000  24.7010000  23.6990000  -7.4730000  24.8040000  23.8580000
  -8.1690000  24.5030000  23.4250000 -15.1390000  28.0090000  31.3960000
 -15.5160000  27.8820000  32.2660000 -15.7020000  27.4980000  30.8140000
 -15.2590000  27.9280000  31.4330000  -6.1320000  29.5190000  26.8510000
  -5.5870000  30.0200000  27.4580000  -6.8260000  30.1260000  26.5940000
  -6.1510000  29.6600000  26.8960000 -18.1490000  31.0850000  27.6720000
 -17.7550000  31.0150000  26.8020000 -17.5370000  30.6300000  28.2490000
 -18.0200000  31.0180000  27.6340000  -3.4280000  26.7650000  23.0440000
  -3.4710000  27.3840000  23.7740000  -3.7940000  25.9540000  23.3960000
  -3.4800000  26.7410000  23.1830000  -8.6780000  27.6290000  23.5230000
  -9.3500000  26.9480000  23.5530000  -8.5990000  27.8460000  22.5940000
  -8.7540000  27.5700000  23.4080000 -14.9910000  22.4820000  37.4860000
 -15.1440000  22.7620000  36.5840000 -15.2280000  23.2420000  38.0170000
 -15.0410000  22.6150000  37.4390000 -13.0590000  26.6030000  36.5920000
 -13.1730000  26.3190000  35.6850000 -13.9490000  26.7060000  36.9250000
 -13.1870000  26.5800000  36.5180000 -14.0130000  24.9300000  31.4380000
 -14.6030000  24.1910000  31.2860000 -13.4010000  24.9020000  30.7030000
 -14.0100000  24.8320000  31.3240000 -12.6280000  31.1220000  29.4700000
 -12.6680000  30.1670000  29.4330000 -13.0840000  31.3500000  30.2800000
 -12.6910000  31.0290000  29.5690000  -4.6630000  27.7750000  36.1520000
  -5.3540000  27.1350000  36.3200000  -4.8710000  28.1310000  35.2890000
  -4.7780000  27.7380000  36.0630000 -19.0450000  26.8770000  23.2890000
 -18.3800000  27.4770000  23.6270000 -19.8770000  27.3110000  23.4780000
 -19.0660000  27.0090000  23.3570000 -11.2980000  30.0580000  20.5780000
 -11.6810000  29.7490000  19.7570000 -11.0590000  30.9690000  20.4030000
 -11.3160000  30.1350000  20.4510000 -17.0420000  21.5130000  26.2560000
 -17.2800000  20.6940000  25.8220000 -17.8030000  22.0810000  26.1300000
 -17.1700000  21.4810000  26.1840000 -12.4710000  20.3280000  22.2600000
 -12.2260000  19.4530000  22.5610000 -12.6860000  20.8050000  23.0610000
 -12.4670000  20.2770000  22.4010000  -7.2390000  22.0770000  24.7980000
  -7.5330000  22.7920000  24.2340000  -7.5100000  22.3380000  25.6780000
  -7.3110000  22.2020000  24.8380000 -15.6340000  24.5930000  20.2940000
 -16.5580000  24.3500000  20.3320000 -15.6370000  25.5130000  20.0290000
 -15.7510000  24.6800000  20.2650000 -13.6640000  28.9460000  23.5830000
 -12.8410000  29.4320000  23.5450000 -13.6130000  28.4510000  24.4000000
 -13.5520000  28.9450000  23.6820000 -11.3690000  30.5830000  23.5850000
 -11.8920000  31.2860000  23.9710000 -11.3570000  30.7790000  22.6490000
 -11.4340000  30.6980000  23.5150000  -4.3260000  25.4500000  19.7490000
  -3.8480000  25.0970000  19.0000000  -3.8240000  26.2220000  20.0120000
  -4.2010000  25.5040000  19.6870000 -15.4330000  30.8860000  34.5790000
 -15.4700000  31.2030000  33.6780000 -16.3040000  30.5270000  34.7440000
 -15.5490000  30.8800000  34.4860000 -12.4980000  28.5830000  31.6330000
 -12.1730000  27.7800000  32.0400000 -13.3670000  28.3510000  31.3070000
 -12.5680000  28.4510000  31.6430000 -16.8820000  29.5170000  37.6020000
 -16.0790000  30.0270000  37.4920000 -17.3320000  29.9350000  38.3370000
 -16.8380000  29.6360000  37.6820000  -6.3860000  26.6650000  26.8620000
  -5.8880000  26.4580000  26.0710000  -6.2020000  27.5900000  27.0260000
  -6.2990000  26.7570000  26.7820000 -11.7610000  25.4110000  20.6030000
 -12.2420000  24.5940000  20.4720000 -11.3270000  25.5700000  19.7650000
 -11.7670000  25.3270000  20.4790000 -17.7970000  30.4480000  21.0610000
 -17.0300000  30.1250000  21.5360000 -18.5400000  30.2090000  21.6160000
 -17.7950000  30.3760000  21.1930000 -18.4600000  24.2040000  29.7570000
 -17.6610000  23.8540000  29.3620000 -18.4790000  23.8240000  30.6350000
 -18.3600000  24.1100000  29.8190000  -9.0650000  27.2610000  27.4850000
  -9.4720000  28.0210000  27.0690000  -8.2030000  27.1960000  27.0750000
  -9.0070000  27.3500000  27.3800000  -4.5280000  28.5000000  24.9670000
  -3.8540000  28.9120000  25.5070000  -5.3380000  28.9460000  25.2130000
  -4.5450000  28.6100000  25.0670000 -16.3740000  28.9910000  28.4700000
 -15.4170000  28.9750000  28.4510000 -16.6190000  28.1770000  28.9100000
 -16.2840000  28.8850000  28.5240000  -6.0710000  23.0010000  31.0090000
  -6.5250000  23.4430000  30.2910000  -6.6130000  23.1760000  31.7780000
  -6.1980000  23.0800000  31.0150000  -0.9060000  27.9290000  29.9530000
  -1.2950000  27.4550000  30.6890000  -1.4410000  28.7180000  29.8670000
  -1.0240000  27.9690000  30.0360000  -7.5320000  24.4770000  28.8190000
  -6.9060000  24.9270000  28.2520000  -7.6740000  23.6300000  28.3950000
  -7.4700000  24.4260000  28.6920000  -7.5080000  21.2220000  21.5750000
  -8.2670000  21.4700000  21.0470000  -6.9530000  22.0020000  21.5760000
  -7.5340000  21.3540000  21.5080000 -14.9740000  24.5150000  23.2920000
 -15.0640000  24.2440000  22.3790000 -15.8710000  24.6720000  23.5850000
 -15.1000000  24.5010000  23.2130000  -5.3860000  20.4060000  26.0880000
  -6.0480000  20.8120000  25.5280000  -4.6910000  20.1430000  25.4850000
  -5.3820000  20.4250000  25.9390000  -3.7730000  25.6380000  31.4670000
  -4.0380000  24.9860000  32.1170000  -3.5540000  25.1250000  30.6890000
  -3.7790000  25.4890000  31.4510000 -13.0270000  27.4310000  25.6920000
 -12.8390000  26.6790000  25.1300000 -12.1710000  27.8220000  25.8620000
 -12.8940000  27.3850000  25.6420000 -11.3710000  22.2910000  34.9320000
 -10.4490000  22.3670000  35.1760000 -11.8230000  22.9080000  35.5070000
 -11.3110000  22.3790000  35.0360000 -14.3800000  19.3010000  27.8510000
 -14.2090000  20.2220000  28.0500000 -13.8140000  18.8170000  28.4520000
 -14.2860000  19.3570000  27.9530000 -13.5260000  28.4280000  28.2440000
 -13.2690000  28.0100000  27.4220000 -13.4420000  27.7360000  28.9000000
 -13.4820000  28.2860000  28.2230000  -2.7200000  19.1670000  37.6670000
  -3.2610000  18.6520000  38.2660000  -3.1840000  20.0000000  37.5800000
  -2.8480000  19.2080000  37.7330000  -1.3510000  26.7180000  32.8650000
  -2.2470000  26.3930000  32.7780000  -1.4510000  27.6130000  33.1900000
  -1.4790000  26.7910000  32.8960000  -9.1550000  28.4050000  20.9030000
  -8.4250000  29.0250000  20.8920000  -9.9370000  28.9560000  20.8720000
  -9.1620000  28.5550000  20.8970000  -9.5230000  25.7860000  30.0190000
  -9.9720000  25.0320000  30.4010000  -8.8010000  25.4060000  29.5190000
  -9.4880000  25.6410000  30.0050000  -7.9880000  29.9100000  31.7310000
  -8.2640000  30.7340000  32.1330000  -7.0370000  29.8970000  31.8400000
  -7.9010000  30.0140000  31.7960000 -12.5000000  22.5230000  24.0020000
 -12.6480000  23.4660000  23.9240000 -13.2920000  22.1910000  24.4260000
 -12.6200000  22.6010000  24.0460000  -8.8490000  22.8670000  36.4210000
  -9.3150000  23.4650000  37.0050000  -8.2540000  23.4310000  35.9260000
  -8.8330000  23.0150000  36.4320000 -13.2440000  23.0120000  20.5970000
 -14.1610000  22.7970000  20.7630000 -12.7690000  22.6240000  21.3320000
 -13.3010000  22.9350000  20.7120000 -16.6020000  27.7580000  33.8680000
 -17.2810000  28.3970000  34.0880000 -17.0120000  26.9090000  34.0320000
 -16.7420000  27.7310000  33.9170000 -18.4540000  20.6670000  32.4500000
 -17.5920000  20.6280000  32.8640000 -18.2680000  20.8170000  31.5230000
 -18.3200000  20.6810000  32.3840000  -7.5370000  28.2000000  29.8170000
  -7.8050000  28.8430000  30.4740000  -8.3360000  28.0180000  29.3210000
  -7.6740000  28.2590000  29.8370000 -18.9950000  25.8380000  36.4370000
 -19.5950000  26.5710000  36.5780000 -18.4480000  25.8210000  37.2230000
 -19.0020000  25.9300000  36.5570000 -17.6400000  24.7390000  24.4800000
 -17.2390000  25.3240000  25.1240000 -18.1030000  25.3240000  23.8810000
 -17.6470000  24.8890000  24.4860000  -7.5600000  26.5340000  32.3800000
  -7.7230000  26.8430000  31.4880000  -8.4210000  26.2700000  32.7020000
  -7.6910000  26.5400000  32.3070000  -7.3380000  20.7550000  36.5170000
  -7.3410000  20.4650000  35.6050000  -8.0100000  21.4360000  36.5540000
  -7.4250000  20.8050000  36.4050000 -15.6790000  19.4180000  20.5250000
 -15.6780000  20.1600000  21.1290000 -15.1750000  19.7220000  19.7710000
 -15.6140000  19.5520000  20.5060000  -7.6280000  30.1970000  34.9160000
  -8.4460000  30.0410000  34.4440000  -7.5800000  31.1490000  35.0050000
  -7.7260000  30.2990000  34.8670000  -3.2780000  24.8930000  36.1460000
  -2.5650000  24.2610000  36.2420000  -2.8380000  25.7300000  36.0000000
  -3.1310000  24.9190000  36.1390000 -17.2500000  26.6750000  29.6680000
 -18.0280000  27.1810000  29.8990000 -17.5120000  25.7620000  29.7910000
 -17.3820000  26.6230000  29.7130000 -14.1530000  30.8320000  26.7740000
 -14.2400000  31.6120000  27.3230000 -14.0810000  30.1080000  27.3970000
 -14.1550000  30.8390000  26.9240000 -18.5220000  21.9160000  21.9790000
 -18.5790000  21.6620000  21.0580000 -19.0700000  22.6980000  22.0470000
 -18.6000000  21.9840000  21.8700000 -14.0510000  25.9730000  33.9580000
 -14.1420000  25.8530000  33.0130000 -14.7750000  26.5510000  34.1960000
 -14.1550000  26.0320000  33.8670000 -12.9690000  19.4890000  25.4100000
 -13.3740000  19.1580000  26.2120000 -12.8620000  18.7150000  24.8580000
 -13.0070000  19.3480000  25.4420000 -12.4260000  25.5350000  23.2960000
 -12.0530000  25.4700000  22.4170000 -13.3310000  25.2390000  23.1950000
 -12.4940000  25.4880000  23.1710000 -10.2810000  22.4320000  25.6810000
 -11.1330000  22.2940000  25.2690000 -10.2310000  23.3790000  25.8170000
 -10.3830000  22.5360000  25.6460000 -15.4090000  23.1000000  34.8720000
 -14.6180000  23.1330000  34.3350000 -15.7690000  23.9860000  34.8240000
 -15.3540000  23.2170000  34.7970000  -9.2360000  26.1030000  18.9200000
  -9.2550000  26.7530000  19.6220000  -8.8810000  25.3150000  19.3320000
  -9.1930000  26.0860000  19.0620000  -4.2530000  21.3530000  36.3410000
  -4.1920000  21.0060000  35.4510000  -5.1930000  21.4010000  36.5160000
  -4.3660000  21.3150000  36.2490000  -9.5630000  20.6060000  23.7720000
  -9.7880000  21.3910000  24.2710000  -8.6640000  20.7580000  23.4800000
  -9.4760000  20.7260000  23.7990000  -4.1360000  20.3260000  28.6420000
  -3.2650000  19.9330000  28.6990000  -4.2350000  20.5570000  27.7190000
  -4.0370000  20.3050000  28.5310000  -7.2280000  20.5930000  33.7760000
  -7.4880000  19.8170000  33.2790000  -6.2720000  20.5980000  33.7280000
  -7.1390000  20.4940000  33.7070000  -4.1110000  24.1910000  23.8900000
  -4.3320000  23.9410000  24.7880000  -3.2950000  23.7250000  23.7070000
  -4.0350000  24.0990000  23.9820000 -10.3080000  22.7410000  29.0570000
 -11.1590000  22.3100000  28.9700000 -10.2090000  22.8880000  29.9980000
 -10.4050000  22.7050000  29.1660000 -11.6770000  19.7620000  36.2080000
 -12.2300000  20.0730000  36.9240000 -11.6160000  20.5080000  35.6110000
 -11.7400000  19.8970000  36.2230000  -1.4200000  24.2150000  21.7260000
  -2.2430000  23.7280000  21.6780000  -1.6720000  25.0790000  22.0540000
  -1.5570000  24.2630000  21.7620000  -4.3630000  31.5480000  35.7450000
  -5.0030000  31.0150000  36.2170000  -4.4010000  31.2250000  34.8440000
  -4.4500000  31.4380000  35.6900000 -16.3340000  22.8960000  28.6710000
 -16.4270000  22.4290000  27.8410000 -15.5100000  22.5730000  29.0360000
 -16.2400000  22.7950000  28.6120000  -1.6960000  29.3850000  33.5620000
  -2.5870000  29.6010000  33.8400000  -1.4190000  30.1380000  33.0410000
  -1.7750000  29.5090000  33.5320000 -14.1700000  22.1540000  29.9270000
 -13.7180000  21.5750000  30.5410000 -13.6070000  22.1690000  29.1540000
 -14.0400000  22.0820000  29.9070000 -17.5880000  25.2540000  34.1960000
 -18.1550000  25.6150000  33.5140000 -18.0850000  25.3700000  35.0070000
 -17.7240000  25.3150000  34.2120000  -4.2690000  30.4240000  33.3460000
  -4.8790000  29.6880000  33.4020000  -4.7010000  31.0480000  32.7630000
  -4.4020000  30.4090000  33.2790000 -15.1710000  31.0120000  31.7710000
 -15.6320000  31.3560000  31.0060000 -15.0900000  30.0740000  31.5990000
 -15.2200000  30.9360000  31.6510000 -16.9750000  28.6530000  23.9560000
 -16.0190000  28.6850000  23.9830000 -17.2460000  29.5700000  23.9940000
 -16.8870000  28.7740000  23.9640000 -12.1350000  24.1120000  36.8990000
 -12.9000000  23.7150000  37.3170000 -12.3890000  25.0230000  36.7510000
 -12.2660000  24.1780000  36.9340000 -15.6160000  21.9430000  21.9270000
 -15.3090000  22.0080000  22.8310000 -16.5350000  21.6850000  22.0060000
 -15.6940000  21.9180000  22.0530000  -6.3070000  26.2040000  24.3110000
  -5.6870000  26.6480000  23.7320000  -7.1170000  26.7080000  24.2260000
  -6.3310000  26.3260000  24.2260000 -10.5960000  28.6670000  25.6840000
 -10.0820000  28.0670000  25.1440000 -10.8700000  29.3570000  25.0800000
 -10.5660000  28.6780000  25.5380000  -4.5540000  21.8960000  33.2430000
  -4.8410000  22.7220000  33.6350000  -4.7770000  21.9800000  32.3160000
  -4.6200000  22.0130000  33.1750000  -0.5390000  23.2320000  25.7290000
   0.0430000  23.7170000  25.1430000  -1.1050000  23.9020000  26.1120000
  -0.5370000  23.3800000  25.7030000  -6.1600000  30.0080000  37.0370000
  -6.9710000  30.0460000  36.5300000  -5.7960000  29.1450000  36.8420000
  -6.2170000  29.9030000  36.9470000 -12.8200000  22.0510000  27.5950000
 -12.9980000  22.6410000  26.8630000 -12.3350000  21.3240000  27.2050000
 -12.7810000  22.0340000  27.4520000 -19.2150000  28.6410000  26.1720000
 -18.6180000  28.8970000  25.4680000 -18.9120000  29.1360000  26.9340000
 -19.1000000  28.7370000  26.1790000  -2.8460000  29.7380000  26.9580000
  -1.9930000  29.3970000  26.6880000  -2.8240000  29.7090000  27.9140000
  -2.7340000  29.6900000  27.0450000  -9.9160000  26.6490000  34.8630000
 -10.6700000  26.3190000  34.3740000 -10.1170000  26.4510000  35.7770000
 -10.0380000  26.5810000  34.9170000  -6.3660000  25.9720000  36.9320000
  -7.1500000  25.9330000  37.4800000  -5.7290000  25.4210000  37.3860000
  -6.3850000  25.8970000  37.0600000  -0.7700000  19.7640000  26.4660000
  -1.3660000  19.4140000  27.1280000  -0.0520000  19.1320000  26.4310000
  -0.7540000  19.6390000  26.5460000  -4.7000000  30.4090000  22.1730000
  -4.3040000  30.7500000  22.9750000  -4.2090000  30.8280000  21.4660000
  -4.5870000  30.5060000  22.1850000  -4.9710000  24.4950000  34.1350000
  -4.2780000  24.6890000  34.7670000  -5.6070000  25.2010000  34.2530000
  -4.9640000  24.6100000  34.2310000 -12.3940000  21.4360000  13.5940000
 -12.1660000  21.4080000  14.5230000 -13.0230000  20.7240000  13.4810000
 -12.4450000  21.3410000  13.6990000 -14.4780000  19.7220000  13.1000000
 -15.0380000  20.1700000  13.7340000 -14.6240000  18.7910000  13.2670000
 -14.5680000  19.6600000  13.2020000 -13.6590000  27.9630000   2.3480000
 -13.8140000  28.4200000   3.1750000 -12.9470000  27.3530000   2.5400000
 -13.5880000  27.9430000   2.4780000 -10.2640000  23.1720000  12.9530000
 -10.8670000  22.5310000  13.3280000  -9.4750000  23.1030000  13.4910000
 -10.2400000  23.0820000  13.0700000  -9.7260000  19.6090000  19.2310000
  -8.8340000  19.3800000  18.9670000 -10.2480000  19.4880000  18.4380000
  -9.6780000  19.5650000  19.0960000  -7.8410000  22.9980000  14.2210000
  -7.6630000  22.1160000  14.5470000  -7.5220000  23.5780000  14.9130000
  -7.7770000  22.9590000  14.3520000  -2.4010000  21.6260000   5.7200000
  -2.3330000  20.6790000   5.5960000  -1.5320000  21.8910000   6.0210000
  -2.2810000  21.5390000   5.7430000  -1.2820000  25.9170000   7.5610000
  -2.0610000  26.0270000   8.1060000  -0.9380000  26.8030000   7.4520000
  -1.3380000  26.0440000   7.6170000 -10.1860000  22.0450000   1.7090000
 -10.4520000  21.5820000   2.5040000 -10.1700000  21.3680000   1.0330000
 -10.2180000  21.8990000   1.7250000  -9.9510000  29.2330000  14.9930000
 -10.0790000  28.3680000  15.3820000  -9.5080000  29.0580000  14.1620000
  -9.9110000  29.1000000  14.9360000  -7.0750000  30.1850000   2.0120000
  -6.3050000  30.2060000   2.5790000  -6.7560000  29.8180000   1.1880000
  -6.9360000  30.1410000   1.9790000  -1.3390000  29.8220000   3.7420000
  -1.7050000  30.4630000   4.3520000  -2.1040000  29.4000000   3.3500000
  -1.4840000  29.8500000   3.7700000 -18.8270000  23.5630000  13.5500000
 -18.5500000  24.1320000  14.2680000 -19.4290000  22.9400000  13.9570000
 -18.8680000  23.5560000  13.6940000 -17.9540000  29.9000000  16.1430000
 -18.8750000  29.6800000  16.0030000 -17.8750000  30.0070000  17.0900000
 -18.0620000  29.8850000  16.2460000  -3.0140000  21.8520000   2.8470000
  -2.8820000  21.7080000   3.7840000  -3.8820000  22.2510000   2.7870000
  -3.1080000  21.8840000   2.9600000 -14.2520000  24.1690000   7.1200000
 -14.6590000  24.1680000   6.2530000 -14.7380000  24.8320000   7.6110000
 -14.3660000  24.2540000   7.0720000 -16.1340000  20.5650000  15.1380000
 -15.9260000  21.4630000  15.3950000 -16.4890000  20.1640000  15.9310000
 -16.1520000  20.6280000  15.2720000 -14.8250000  21.3560000   5.8380000
 -15.5840000  21.3430000   6.4230000 -14.2930000  20.6120000   6.1190000
 -14.8540000  21.2590000   5.9490000  -7.7850000  25.0540000  16.1370000
  -7.1990000  25.3670000  16.8260000  -8.5110000  25.6790000  16.1370000
  -7.8030000  25.1740000  16.2250000 -10.1650000  25.5550000   5.6690000
 -10.9900000  25.5370000   5.1840000 -10.4160000  25.3690000   6.5740000
 -10.3030000  25.5290000   5.7230000 -18.2650000  23.5670000  19.1910000
 -18.4630000  23.6480000  18.2600000 -19.0580000  23.8700000  19.6320000
 -18.3910000  23.6160000  19.1280000 -15.3400000  27.1770000   0.3390000
 -15.9430000  27.9140000   0.2430000 -14.7110000  27.4670000   1.0000000
 -15.3370000  27.3080000   0.4110000 -12.1900000  26.1300000  10.6140000
 -11.3090000  26.4220000  10.8460000 -12.1040000  25.7960000   9.7210000
 -12.0660000  26.1250000  10.5290000  -7.8930000  21.9490000   8.7980000
  -8.8450000  21.8860000   8.8690000  -7.5650000  21.2210000   9.3260000
  -7.9730000  21.8480000   8.8750000  -2.7640000  29.9570000  10.9200000
  -2.3240000  30.4640000  11.6030000  -3.4360000  29.4600000  11.3860000
  -2.7930000  29.9580000  11.0670000 -12.2440000  29.4780000  17.9840000
 -12.4010000  28.5340000  17.9480000 -12.3340000  29.7700000  17.0770000
 -12.2760000  29.3940000  17.8630000  -5.4140000  23.2740000   2.6620000
  -5.3100000  23.6180000   3.5490000  -5.5440000  24.0500000   2.1170000
  -5.4170000  23.4170000   2.7060000  -2.7720000  24.1220000   9.9890000
  -1.8600000  24.1330000  10.2820000  -2.7720000  23.5370000   9.2310000
  -2.6550000  24.0480000   9.9300000  -4.9270000  28.4590000  11.8400000
  -5.8020000  28.2020000  11.5500000  -4.5750000  27.6760000  12.2640000
  -4.9940000  28.3260000  11.8570000 -13.1850000  20.4480000   0.6490000
 -12.8430000  20.4570000   1.5430000 -13.6700000  21.2700000   0.5710000
 -13.2030000  20.5550000   0.7530000 -18.0160000  20.3640000  10.5530000
 -17.1830000  20.8180000  10.4290000 -18.6040000  20.7630000   9.9130000
 -17.9850000  20.4730000  10.4560000 -16.9170000  19.4970000  17.5650000
 -17.7500000  19.0700000  17.7660000 -16.9510000  20.3240000  18.0450000
 -17.0280000  19.5480000  17.6520000 -10.5820000  24.9590000   8.3030000
 -10.4960000  24.1750000   8.8460000 -10.1420000  25.6460000   8.8030000
 -10.5150000  24.9470000   8.4360000  -1.9200000  22.5770000  17.6430000
  -2.8190000  22.2490000  17.6380000  -1.5950000  22.4000000  16.7610000
  -1.9940000  22.5120000  17.5300000  -3.4860000  19.0980000   2.5170000
  -3.3580000  20.0130000   2.2650000  -4.4350000  19.0030000   2.6020000
  -3.5910000  19.2030000   2.4960000  -0.3110000  20.4360000   0.5180000
  -0.4870000  21.2770000   0.0970000  -1.1200000  19.9370000   0.4040000
  -0.4370000  20.4800000   0.4500000   2.2580000  26.3640000   7.8960000
   2.2720000  26.0510000   8.8010000   2.2090000  27.3170000   7.9730000
   2.2540000  26.4460000   8.0220000  -8.3490000  24.3000000   1.7790000
  -8.9750000  23.5760000   1.8030000  -8.1310000  24.4590000   2.6970000
  -8.4010000  24.2280000   1.8990000 -11.6110000  25.9480000  13.8990000
 -12.4560000  25.6280000  14.2160000 -11.1380000  25.1570000  13.6400000
 -11.6590000  25.8060000  13.9070000 -14.6840000  31.1340000  18.2330000
 -13.8730000  30.6460000  18.0910000 -14.9530000  31.4110000  17.3570000
 -14.6150000  31.1070000  18.1020000  -1.8830000  21.8150000  15.0740000
  -2.7490000  21.6510000  14.7030000  -1.3010000  21.2230000  14.5960000
  -1.9190000  21.7180000  14.9650000  -2.1770000  27.2650000   1.7800000
  -2.6340000  27.0240000   2.5860000  -1.2510000  27.1250000   1.9790000
  -2.1170000  27.2160000   1.9090000 -12.4220000  30.1740000  15.2610000
 -11.5420000  29.8010000  15.2090000 -12.9600000  29.5930000  14.7240000
 -12.3780000  30.0520000  15.1860000  -4.0520000  22.9820000   7.3680000
  -3.3560000  22.5960000   6.8350000  -4.6620000  22.2600000   7.5230000
  -4.0410000  22.8400000   7.3190000  -5.9780000  28.4310000  14.9100000
  -6.5350000  28.0370000  14.2380000  -6.5540000  29.0410000  15.3700000
  -6.1230000  28.4590000  14.8830000  -2.0640000  27.6920000  18.1040000
  -2.8870000  28.0320000  17.7550000  -2.2080000  27.6360000  19.0490000
  -2.1870000  27.7280000  18.1800000  -8.1510000  24.4180000   4.4430000
  -8.9740000  24.7010000   4.8390000  -7.4730000  24.8040000   4.9980000
  -8.1690000  24.5030000   4.5650000 -15.1390000  28.0090000  12.5360000
 -15.5160000  27.8820000  13.4060000 -15.7020000  27.4980000  11.9540000
 -15.2590000  27.9280000  12.5730000  -6.1320000  29.5190000   7.9910000
  -5.5870000  30.0200000   8.5980000  -6.8260000  30.1260000   7.7340000
  -6.1510000  29.6600000   8.0360000 -18.1490000  31.0850000   8.8120000
 -17.7550000  31.0150000   7.9420000 -17.5370000  30.6300000   9.3890000
 -18.0200000  31.0180000   8.7740000  -3.4280000  26.7650000   4.1840000
  -3.4710000  27.3840000   4.9140000  -3.7940000  25.9540000   4.5360000
  -3.4800000  26.7410000   4.3230000  -8.6780000  27.6290000   4.6630000
  -9.3500000  26.9480000   4.6930000  -8.5990000  27.8460000   3.7340000
  -8.7540000  27.5700000   4.5480000 -14.9910000  22.4820000  18.6260000
 -15.1440000  22.7620000  17.7240000 -15.2280000  23.2420000  19.1570000
 -15.0410000  22.6150000  18.5790000 -13.0590000  26.6030000  17.7320000
 -13.1730000  26.3190000  16.8250000 -13.9490000  26.7060000  18.0650000
 -13.1870000  26.5800000  17.6590000 -14.0130000  24.9300000  12.5780000
 -14.6030000  24.1910000  12.4260000 -13.4010000  24.9020000  11.8430000
 -14.0100000  24.8320000  12.4640000 -12.6280000  31.1220000  10.6100000
 -12.6680000  30.1670000  10.5730000 -13.0840000  31.3500000  11.4200000
 -12.6910000  31.0290000  10.7090000  -4.6630000  27.7750000  17.2920000
  -5.3540000  27.1350000  17.4600000  -4.8710000  28.1310000  16.4290000
  -4.7780000  27.7380000  17.2030000 -19.0450000  26.8770000   4.4290000
 -18.3800000  27.4770000   4.7670000 -19.8770000  27.3110000   4.6180000
 -19.0660000  27.0090000   4.4970000 -11.2980000  30.0580000   1.7180000
 -11.6810000  29.7490000   0.8970000 -11.0590000  30.9690000   1.5430000
 -11.3160000  30.1350000   1.5910000 -17.0420000  21.5130000   7.3960000
 -17.2800000  20.6940000   6.9620000 -17.8030000  22.0810000   7.2690000
 -17.1700000  21.4810000   7.3240000 -12.4710000  20.3280000   3.4000000
 -12.2260000  19.4530000   3.7010000 -12.6860000  20.8050000   4.2010000
 -12.4670000  20.2770000   3.5410000  -7.2390000  22.0770000   5.9380000
  -7.5330000  22.7920000   5.3740000  -7.5100000  22.3380000   6.8180000
  -7.3110000  22.2020000   5.9780000 -15.6340000  24.5930000   1.4340000
 -16.5580000  24.3500000   1.4720000 -15.6370000  25.5130000   1.1690000
 -15.7510000  24.6800000   1.4050000 -13.6640000  28.9460000   4.7230000
 -12.8410000  29.4320000   4.6850000 -13.6130000  28.4510000   5.5400000
 -13.5520000  28.9450000   4.8220000 -11.3690000  30.5830000   4.7250000
 -11.8920000  31.2860000   5.1110000 -11.3570000  30.7790000   3.7890000
 -11.4340000  30.6980000   4.6550000  -4.3260000  25.4500000   0.8890000
  -3.8480000  25.0970000   0.1400000  -3.8240000  26.2220000   1.1520000
  -4.2010000  25.5040000   0.8270000 -15.4330000  30.8860000  15.7190000
 -15.4700000  31.2030000  14.8170000 -16.3040000  30.5270000  15.8840000
 -15.5490000  30.8800000  15.6250000  -2.4740000  16.5300000  10.2880000
  -2.3280000  16.9350000  11.1430000  -3.4190000  16.5980000  10.1490000
  -2.5760000  16.5900000  10.3800000 -16.8820000  29.5170000  18.7420000
 -16.0790000  30.0270000  18.6320000 -17.3320000  29.9350000  19.4760000
 -16.8380000  29.6360000  18.8220000  -6.3860000  26.6650000   8.0020000
  -5.8880000  26.4580000   7.2110000  -6.2020000  27.5900000   8.1660000
  -6.2990000  26.7570000   7.9220000 -11.7610000  25.4110000   1.7430000
 -12.2420000  24.5940000   1.6120000 -11.3270000  25.5700000   0.9050000
 -11.7670000  25.3270000   1.6190000 -17.7970000  30.4480000   2.2010000
 -17.0300000  30.1250000   2.6760000 -18.5400000  30.2090000   2.7560000
 -17.7950000  30.3760000   2.3330000 -18.4600000  24.2040000  10.8970000
 -17.6610000  23.8540000  10.5020000 -18.4790000  23.8240000  11.7750000
 -18.3600000  24.1100000  10.9590000  -9.0650000  27.2610000   8.6250000
  -9.4720000  28.0210000   8.2090000  -8.2030000  27.1960000   8.2150000
  -9.0070000  27.3500000   8.5190000  -4.5280000  28.5000000   6.1070000
  -3.8540000  28.9120000   6.6470000  -5.3380000  28.9460000   6.3530000
  -4.5450000  28.6100000   6.2070000 -16.3740000  28.9910000   9.6100000
 -15.4170000  28.9750000   9.5910000 -16.6190000  28.1770000  10.0500000
 -16.2840000  28.8850000   9.6640000  -6.0710000  23.0010000  12.1490000
  -6.5250000  23.4430000  11.4310000  -6.6130000  23.1760000  12.9180000
  -6.1980000  23.0800000  12.1550000  -0.9060000  27.9290000  11.0930000
  -1.2950000  27.4550000  11.8290000  -1.4410000  28.7180000  11.0070000
  -1.0240000  27.9690000  11.1760000  -7.5320000  24.4770000   9.9590000
  -6.9060000  24.9270000   9.3920000  -7.6740000  23.6300000   9.5350000
  -7.4700000  24.4260000   9.8320000  -7.5080000  21.2220000   2.7150000
  -8.2670000  21.4700000   2.1870000  -6.9530000  22.0020000   2.7160000
  -7.5340000  21.3540000   2.6480000 -14.9740000  24.5150000   4.4320000
 -15.0640000  24.2440000   3.5190000 -15.8710000  24.6720000   4.7250000
 -15.1000000  24.5010000   4.3530000  -5.3860000  20.4060000   7.2280000
  -6.0480000  20.8120000   6.6680000  -4.6910000  20.1430000   6.6250000
  -5.3820000  20.4250000   7.0790000  -3.7730000  25.6380000  12.6070000
  -4.0380000  24.9860000  13.2570000  -3.5540000  25.1250000  11.8290000
  -3.7790000  25.4890000  12.5910000 -13.0270000  27.4310000   6.8320000
 -12.8390000  26.6790000   6.2700000 -12.1710000  27.8220000   7.0020000
 -12.8940000  27.3850000   6.7820000 -11.3710000  22.2910000  16.0720000
 -10.4490000  22.3670000  16.3160000 -11.8230000  22.9080000  16.6470000
 -11.3110000  22.3790000  16.1760000 -14.3800000  19.3010000   8.9910000
 -14.2090000  20.2220000   9.1900000 -13.8140000  18.8170000   9.5920000
 -14.2860000  19.3570000   9.0930000 -13.5260000  28.4280000   9.3840000
 -13.2690000  28.0100000   8.5620000 -13.4420000  27.7360000  10.0400000
 -13.4820000  28.2860000   9.3630000  -2.7200000  19.1670000  18.8070000
  -3.2610000  18.6520000  19.4050000  -3.1840000  20.0000000  18.7200000
  -2.8480000  19.2080000  18.8730000  -1.3510000  26.7180000  14.0050000
  -2.2470000  26.3930000  13.9180000  -1.4510000  27.6130000  14.3300000
  -1.4790000  26.7910000  14.0360000  -9.1550000  28.4050000   2.0430000
  -8.4250000  29.0250000   2.0320000  -9.9370000  28.9560000   2.0120000
  -9.1620000  28.5550000   2.0370000  -9.5230000  25.7860000  11.1590000
  -9.9720000  25.0320000  11.5410000  -8.8010000  25.4060000  10.6590000
  -9.4880000  25.6410000  11.1440000  -7.9880000  29.9100000  12.8710000
  -8.2640000  30.7340000  13.2730000  -7.0370000  29.8970000  12.9800000
  -7.9010000  30.0140000  12.9360000 -12.5000000  22.5230000   5.1420000
 -12.6480000  23.4660000   5.0640000 -13.2920000  22.1910000   5.5660000
 -12.6200000  22.6010000   5.1860000  -8.8490000  22.8670000  17.5610000
  -9.3150000  23.4650000  18.1450000  -8.2540000  23.4310000  17.0660000
  -8.8330000  23.0150000  17.5720000 -13.2440000  23.0120000   1.7370000
 -14.1610000  22.7970000   1.9030000 -12.7690000  22.6240000   2.4720000
 -13.3010000  22.9350000   1.8520000 -16.6020000  27.7580000  15.0080000
 -17.2810000  28.3970000  15.2280000 -17.0120000  26.9090000  15.1710000
 -16.7420000  27.7310000  15.0570000 -18.4540000  20.6670000  13.5900000
 -17.5920000  20.6280000  14.0040000 -18.2680000  20.8170000  12.6630000
 -18.3200000  20.6810000  13.5240000  -7.5370000  28.2000000  10.9570000
  -7.8050000  28.8430000  11.6140000  -8.3360000  28.0180000  10.4610000
  -7.6740000  28.2590000  10.9770000 -18.9950000  25.8380000  17.5770000
 -19.5950000  26.5710000  17.7180000 -18.4480000  25.8210000  18.3630000
 -19.0020000  25.9300000  17.6960000 -17.6400000  24.7390000   5.6200000
 -17.2390000  25.3240000   6.2640000 -18.1030000  25.3240000   5.0210000
 -17.6470000  24.8890000   5.6260000  -7.5600000  26.5340000  13.5190000
  -7.7230000  26.8430000  12.6280000  -8.4210000  26.2700000  13.8420000
  -7.6910000  26.5400000  13.4470000  -7.3380000  20.7550000  17.6570000
  -7.3410000  20.4650000  16.7450000  -8.0100000  21.4360000  17.6940000
  -7.4250000  20.8050000  17.5450000  -7.6280000  30.1970000  16.0550000
  -8.4460000  30.0410000  15.5840000  -7.5800000  31.1490000  16.1440000
  -7.7260000  30.2990000  16.0060000  -3.2780000  24.8930000  17.2860000
  -2.5650000  24.2610000  17.3810000  -2.8380000  25.7300000  17.1400000
  -3.1310000  24.9190000  17.2790000 -17.2500000  26.6750000  10.8080000
 -18.0280000  27.1810000  11.0390000 -17.5120000  25.7620000  10.9310000
 -17.3820000  26.6230000  10.8530000 -14.1530000  30.8320000   7.9140000
 -14.2400000  31.6120000   8.4630000 -14.0810000  30.1080000   8.5370000
 -14.1550000  30.8390000   8.0640000 -18.5220000  21.9160000   3.1190000
 -18.5790000  21.6620000   2.1980000 -19.0700000  22.6980000   3.1870000
 -18.6000000  21.9840000   3.0100000 -14.0510000  25.9730000  15.0980000
 -14.1420000  25.8530000  14.1530000 -14.7750000  26.5510000  15.3360000
 -14.1550000  26.0320000  15.0070000 -12.9690000  19.4890000   6.5500000
 -13.3740000  19.1580000   7.3520000 -12.8620000  18.7150000   5.9980000
 -13.0070000  19.3480000   6.5820000 -12.4260000  25.5350000   4.4360000
 -12.0530000  25.4700000   3.5570000 -13.3310000  25.2390000   4.3350000
 -12.4940000  25.4880000   4.3110000 -10.2810000  22.4320000   6.8210000
 -11.1330000  22.2940000   6.4090000 -10.2310000  23.3790000   6.9570000
 -10.3830000  22.5360000   6.7860000 -15.4090000  23.1000000  16.0120000
 -14.6180000  23.1330000  15.4750000 -15.7690000  23.9860000  15.9640000
 -15.3540000  23.2170000  15.9370000  -9.2360000  26.1030000   0.0600000
  -9.2550000  26.7530000   0.7620000  -8.8810000  25.3150000   0.4720000
  -9.1930000  26.0860000   0.2020000  -4.2530000  21.3530000  17.4810000
  -4.1920000  21.0060000  16.5910000  -5.1930000  21.4010000  17.6550000
  -4.3660000  21.3150000  17.3890000  -9.5630000  20.6060000   4.9120000
  -9.7880000  21.3910000   5.4110000  -8.6640000  20.7580000   4.6200000
  -9.4760000  20.7260000   4.9390000  -4.1360000  20.3260000   9.7820000
  -3.2650000  19.9330000   9.8390000  -4.2350000  20.5570000   8.8590000
  -4.0370000  20.3050000   9.6710000  -7.2280000  20.5930000  14.9160000
  -7.4880000  19.8170000  14.4190000  -6.2720000  20.5980000  14.8680000
  -7.1390000  20.4940000  14.8460000  -4.1110000  24.1910000   5.0300000
  -4.3320000  23.9410000   5.9280000  -3.2950000  23.7250000   4.8470000
  -4.0350000  24.0990000   5.1220000 -11.6770000  19.7620000  17.3480000
 -12.2300000  20.0730000  18.0640000 -11.6160000  20.5080000  16.7510000
 -11.7400000  19.8970000  17.3630000  -1.4200000  24.2150000   2.8660000
  -2.2430000  23.7280000   2.8180000  -1.6720000  25.0790000   3.1940000
  -1.5570000  24.2630000   2.9020000  -4.3630000  31.5480000  16.8850000
  -5.0030000  31.0150000  17.3570000  -4.4010000  31.2250000  15.9840000
  -4.4500000  31.4380000  16.8300000 -16.3340000  22.8960000   9.8110000
 -16.4270000  22.4290000   8.9810000 -15.5100000  22.5730000  10.1760000
 -16.2400000  22.7950000   9.7520000  -1.6960000  29.3850000  14.7020000
  -2.5870000  29.6010000  14.9800000  -1.4190000  30.1380000  14.1800000
  -1.7750000  29.5090000  14.6710000 -14.1700000  22.1540000  11.0670000
 -13.7180000  21.5750000  11.6810000 -13.6070000  22.1690000  10.2940000
 -14.0400000  22.0820000  11.0470000 -17.5880000  25.2540000  15.3360000
 -18.1550000  25.6150000  14.6540000 -18.0850000  25.3700000  16.1460000
 -17.7240000  25.3150000  15.3520000  -4.2690000  30.4240000  14.4860000
  -4.8790000  29.6880000  14.5420000  -4.7010000  31.0480000  13.9030000
  -4.4020000  30.4090000  14.4190000 -15.1710000  31.0120000  12.9110000
 -15.6320000  31.3560000  12.1460000 -15.0900000  30.0740000  12.7390000
 -15.2200000  30.9360000  12.7910000 -16.9750000  28.6530000   5.0960000
 -16.0190000  28.6850000   5.1230000 -17.2460000  29.5700000   5.1340000
 -16.8870000  28.7740000   5.1040000 -12.1350000  24.1120000  18.0400000
 -12.9000000  23.7150000  18.4570000 -12.3890000  25.0230000  17.8910000
 -12.2660000  24.1780000  18.0740000 -15.6160000  21.9430000   3.0670000
 -15.3090000  22.0080000   3.9710000 -16.5350000  21.6850000   3.1460000
 -15.6940000  21.9180000   3.1930000  -6.3070000  26.2040000   5.4510000
  -5.6870000  26.6480000   4.8720000  -7.1170000  26.7080000   5.3660000
  -6.3310000  26.3260000   5.3660000 -10.5960000  28.6670000   6.8240000
 -10.0820000  28.0670000   6.2840000 -10.8700000  29.3570000   6.2200000
 -10.5660000  28.6780000   6.6780000  -4.5540000  21.8960000  14.3830000
  -4.8410000  22.7220000  14.7740000  -4.7770000  21.9800000  13.4560000
  -4.6200000  22.0130000  14.3150000  -0.5390000  23.2320000   6.8690000
   0.0430000  23.7170000   6.2830000  -1.1050000  23.9020000   7.2520000
  -0.5370000  23.3800000   6.8430000  -6.1600000  30.0080000  18.1770000
  -6.9710000  30.0460000  17.6700000  -5.7960000  29.1450000  17.9820000
  -6.2170000  29.9030000  18.0870000 -12.8200000  22.0510000   8.7350000
 -12.9980000  22.6410000   8.0030000 -12.3350000  21.3240000   8.3450000
 -12.7810000  22.0340000   8.5920000 -19.2150000  28.6410000   7.3120000
 -18.6180000  28.8970000   6.6080000 -18.9120000  29.1360000   8.0740000
 -19.1000000  28.7370000   7.3190000  -2.8460000  29.7380000   8.0980000
  -1.9930000  29.3970000   7.8280000  -2.8240000  29.7090000   9.0540000
  -2.7340000  29.6900000   8.1850000  -9.9160000  26.6490000  16.0030000
 -10.6700000  26.3190000  15.5140000 -10.1170000  26.4510000  16.9170000
 -10.0380000  26.5810000  16.0570000  -6.3660000  25.9720000  18.0720000
  -7.1500000  25.9330000  18.6200000  -5.7290000  25.4210000  18.5260000
  -6.3850000  25.8970000  18.2000000  -0.7700000  19.7640000   7.6060000
  -1.3660000  19.4140000   8.2680000  -0.0520000  19.1320000   7.5710000
  -0.7540000  19.6390000   7.6860000  -4.7000000  30.4090000   3.3130000
  -4.3040000  30.7500000   4.1150000  -4.2090000  30.8280000   2.6060000
  -4.5870000  30.5060000   3.3250000  -4.9710000  24.4950000  15.2750000
  -4.2780000  24.6890000  15.9070000  -5.6070000  25.2010000  15.3930000
  -4.9640000  24.6100000  15.3710000 -12.3940000  21.4360000  -5.2660000
 -12.1660000  21.4080000  -4.3370000 -13.0230000  20.7240000  -5.3790000
 -12.4450000  21.3410000  -5.1610000 -14.4780000  19.7220000  -5.7600000
 -15.0380000  20.1700000  -5.1260000 -14.6240000  18.7910000  -5.5930000
 -14.5680000  19.6600000  -5.6580000 -13.6590000  27.9630000 -16.5120000
 -13.8140000  28.4200000 -15.6850000 -12.9470000  27.3530000 -16.3200000
 -13.5880000  27.9430000 -16.3820000 -10.2640000  23.1720000  -5.9070000
 -10.8670000  22.5310000  -5.5320000  -9.4750000  23.1030000  -5.3690000
 -10.2400000  23.0820000  -5.7900000  -9.7260000  19.6090000   0.3710000
  -8.8340000  19.3800000   0.1070000 -10.2480000  19.4880000  -0.4220000
  -9.6780000  19.5650000   0.2360000  -7.8410000  22.9980000  -4.6390000
  -7.6630000  22.1160000  -4.3130000  -7.5220000  23.5780000  -3.9470000
  -7.7770000  22.9590000  -4.5080000  -2.4010000  21.6260000 -13.1400000
  -2.3330000  20.6790000 -13.2640000  -1.5320000  21.8910000 -12.8390000
  -2.2810000  21.5390000 -13.1170000  -1.2820000  25.9170000 -11.2990000
  -2.0610000  26.0270000 -10.7540000  -0.9380000  26.8030000 -11.4080000
  -1.3380000  26.0440000 -11.2430000 -10.1860000  22.0450000 -17.1510000
 -10.4520000  21.5820000 -16.3560000 -10.1700000  21.3680000 -17.8270000
 -10.2180000  21.8990000 -17.1350000  -9.9510000  29.2330000  -3.8670000
 -10.0790000  28.3680000  -3.4780000  -9.5080000  29.0580000  -4.6980000
  -9.9110000  29.1000000  -3.9240000  -7.0750000  30.1850000 -16.8480000
  -6.3050000  30.2060000 -16.2810000  -6.7560000  29.8180000 -17.6720000
  -6.9360000  30.1410000 -16.8810000  -1.3390000  29.8220000 -15.1180000
  -1.7050000  30.4630000 -14.5080000  -2.1040000  29.4000000 -15.5100000
  -1.4840000  29.8500000 -15.0900000 -18.8270000  23.5630000  -5.3100000
 -18.5500000  24.1320000  -4.5920000 -19.4290000  22.9400000  -4.9030000
 -18.8680000  23.5560000  -5.1660000 -17.9540000  29.9000000  -2.7170000
 -18.8750000  29.6800000  -2.8570000 -17.8750000  30.0070000  -1.7700000
 -18.0620000  29.8850000  -2.6140000  -3.0140000  21.8520000 -16.0130000
  -2.8820000  21.7080000 -15.0760000  -3.8820000  22.2510000 -16.0730000
  -3.1080000  21.8840000 -15.9000000 -14.2520000  24.1690000 -11.7400000
 -14.6590000  24.1680000 -12.6070000 -14.7380000  24.8320000 -11.2490000
 -14.3660000  24.2540000 -11.7880000 -16.1340000  20.5650000  -3.7220000
 -15.9260000  21.4630000  -3.4650000 -16.4890000  20.1640000  -2.9290000
 -16.1520000  20.6280000  -3.5880000 -14.8250000  21.3560000 -13.0220000
 -15.5840000  21.3430000 -12.4370000 -14.2930000  20.6120000 -12.7410000
 -14.8540000  21.2590000 -12.9110000  -7.7850000  25.0540000  -2.7230000
  -7.1990000  25.3670000  -2.0340000  -8.5110000  25.6790000  -2.7230000
  -7.8030000  25.1740000  -2.6350000 -10.1650000  25.5550000 -13.1910000
 -10.9900000  25.5370000 -13.6760000 -10.4160000  25.3690000 -12.2860000
 -10.3030000  25.5290000 -13.1370000 -18.2650000  23.5670000   0.3310000
 -18.4630000  23.6480000  -0.6010000 -19.0580000  23.8700000   0.7720000
 -18.3910000  23.6160000   0.2680000 -15.3400000  27.1770000 -18.5210000
 -15.9430000  27.9140000 -18.6170000 -14.7110000  27.4670000 -17.8600000
 -15.3370000  27.3080000 -18.4490000 -12.1900000  26.1300000  -8.2460000
 -11.3090000  26.4220000  -8.0140000 -12.1040000  25.7960000  -9.1390000
 -12.0660000  26.1250000  -8.3310000  -7.8930000  21.9490000 -10.0620000
  -8.8450000  21.8860000  -9.9910000  -7.5650000  21.2210000  -9.5340000
  -7.9730000  21.8480000  -9.9850000  -2.7640000  29.9570000  -7.9400000
  -2.3240000  30.4640000  -7.2570000  -3.4360000  29.4600000  -7.4740000
  -2.7930000  29.9580000  -7.7930000 -12.2440000  29.4780000  -0.8760000
 -12.4010000  28.5340000  -0.9120000 -12.3340000  29.7700000  -1.7830000
 -12.2760000  29.3940000  -0.9970000  -5.4140000  23.2740000 -16.1980000
  -5.3100000  23.6180000 -15.3110000  -5.5440000  24.0500000 -16.7430000
  -5.4170000  23.4170000 -16.1540000  -2.7720000  24.1220000  -8.8710000
  -1.8600000  24.1330000  -8.5780000  -2.7720000  23.5370000  -9.6290000
  -2.6550000  24.0480000  -8.9300000  -4.9270000  28.4590000  -7.0200000
  -5.8020000  28.2020000  -7.3100000  -4.5750000  27.6760000  -6.5960000
  -4.9940000  28.3260000  -7.0030000 -13.1850000  20.4480000 -18.2110000
 -12.8430000  20.4570000 -17.3170000 -13.6700000  21.2700000 -18.2890000
 -13.2030000  20.5550000 -18.1070000 -18.0160000  20.3640000  -8.3070000
 -17.1830000  20.8180000  -8.4310000 -18.6040000  20.7630000  -8.9470000
 -17.9850000  20.4730000  -8.4040000 -16.9170000  19.4970000  -1.2950000
 -17.7500000  19.0700000  -1.0940000 -16.9510000  20.3240000  -0.8150000
 -17.0280000  19.5480000  -1.2080000 -10.5820000  24.9590000 -10.5570000
 -10.4960000  24.1750000 -10.0140000 -10.1420000  25.6460000 -10.0570000
 -10.5150000  24.9470000 -10.4240000  -1.9200000  22.5770000  -1.2170000
  -2.8190000  22.2490000  -1.2220000  -1.5950000  22.4000000  -2.0990000
  -1.9940000  22.5120000  -1.3300000  -3.4860000  19.0980000 -16.3430000
  -3.3580000  20.0130000 -16.5950000  -4.4350000  19.0030000 -16.2580000
  -3.5910000  19.2030000 -16.3640000  -0.3110000  20.4360000 -18.3420000
  -0.4870000  21.2770000 -18.7630000  -1.1200000  19.9370000 -18.4560000
  -0.4370000  20.4800000 -18.4100000   2.2580000  26.3640000 -10.9640000
   2.2720000  26.0510000 -10.0590000   2.2090000  27.3170000 -10.8870000
   2.2540000  26.4460000 -10.8380000  -8.3490000  24.3000000 -17.0810000
  -8.9750000  23.5760000 -17.0570000  -8.1310000  24.4590000 -16.1630000
  -8.4010000  24.2280000 -16.9610000 -11.6110000  25.9480000  -4.9610000
 -12.4560000  25.6280000  -4.6440000 -11.1380000  25.1570000  -5.2200000
 -11.6590000  25.8060000  -4.9530000 -14.6840000  31.1340000  -0.6270000
 -13.8730000  30.6460000  -0.7690000 -14.9530000  31.4110000  -1.5030000
 -14.6150000  31.1070000  -0.7580000  -1.8830000  21.8150000  -3.7860000
  -2.7490000  21.6510000  -4.1570000  -1.3010000  21.2230000  -4.2640000
  -1.9190000  21.7180000  -3.8950000  -2.1770000  27.2650000 -17.0800000
  -2.6340000  27.0240000 -16.2740000  -1.2510000  27.1250000 -16.8810000
  -2.1170000  27.2160000 -16.9510000 -12.4220000  30.1740000  -3.5990000
 -11.5420000  29.8010000  -3.6510000 -12.9600000  29.5930000  -4.1360000
 -12.3780000  30.0520000  -3.6740000  -4.0520000  22.9820000 -11.4920000
  -3.3560000  22.5960000 -12.0250000  -4.6620000  22.2600000 -11.3370000
  -4.0410000  22.8400000 -11.5410000  -5.9780000  28.4310000  -3.9500000
  -6.5350000  28.0370000  -4.6220000  -6.5540000  29.0410000  -3.4900000
  -6.1230000  28.4590000  -3.9770000  -2.0640000  27.6920000  -0.7560000
  -2.8870000  28.0320000  -1.1050000  -2.2080000  27.6360000   0.1890000
  -2.1870000  27.7280000  -0.6800000  -8.1510000  24.4180000 -14.4170000
  -8.9740000  24.7010000 -14.0210000  -7.4730000  24.8040000 -13.8620000
  -8.1690000  24.5030000 -14.2950000 -15.1390000  28.0090000  -6.3240000
 -15.5160000  27.8820000  -5.4540000 -15.7020000  27.4980000  -6.9060000
 -15.2590000  27.9280000  -6.2870000  -6.1320000  29.5190000 -10.8690000
  -5.5870000  30.0200000 -10.2620000  -6.8260000  30.1260000 -11.1260000
  -6.1510000  29.6600000 -10.8240000 -18.1490000  31.0850000 -10.0480000
 -17.7550000  31.0150000 -10.9180000 -17.5370000  30.6300000  -9.4710000
 -18.0200000  31.0180000 -10.0860000  -3.4280000  26.7650000 -14.6760000
  -3.4710000  27.3840000 -13.9460000  -3.7940000  25.9540000 -14.3240000
  -3.4800000  26.7410000 -14.5370000  -8.6780000  27.6290000 -14.1970000
  -9.3500000  26.9480000 -14.1670000  -8.5990000  27.8460000 -15.1260000
  -8.7540000  27.5700000 -14.3120000 -14.9910000  22.4820000  -0.2340000
 -15.1440000  22.7620000  -1.1360000 -15.2280000  23.2420000   0.2970000
 -15.0410000  22.6150000  -0.2810000 -13.0590000  26.6030000  -1.1280000
 -13.1730000  26.3190000  -2.0350000 -13.9490000  26.7060000  -0.7950000
 -13.1870000  26.5800000  -1.2020000 -14.0130000  24.9300000  -6.2820000
 -14.6030000  24.1910000  -6.4340000 -13.4010000  24.9020000  -7.0170000
 -14.0100000  24.8320000  -6.3960000 -12.6280000  31.1220000  -8.2500000
 -12.6680000  30.1670000  -8.2870000 -13.0840000  31.3500000  -7.4400000
 -12.6910000  31.0290000  -8.1510000  -4.6630000  27.7750000  -1.5680000
  -5.3540000  27.1350000  -1.4000000  -4.8710000  28.1310000  -2.4310000
  -4.7780000  27.7380000  -1.6570000 -19.0450000  26.8770000 -14.4310000
 -18.3800000  27.4770000 -14.0930000 -19.8770000  27.3110000 -14.2420000
 -19.0660000  27.0090000 -14.3630000 -11.2980000  30.0580000 -17.1420000
 -11.6810000  29.7490000 -17.9630000 -11.0590000  30.9690000 -17.3170000
 -11.3160000  30.1350000 -17.2690000 -17.0420000  21.5130000 -11.4640000
 -17.2800000  20.6940000 -11.8980000 -17.8030000  22.0810000 -11.5910000
 -17.1700000  21.4810000 -11.5360000  -7.2390000  22.0770000 -12.9220000
  -7.5330000  22.7920000 -13.4860000  -7.5100000  22.3380000 -12.0420000
  -7.3110000  22.2020000 -12.8820000 -15.6340000  24.5930000 -17.4260000
 -16.5580000  24.3500000 -17.3880000 -15.6370000  25.5130000 -17.6910000
 -15.7510000  24.6800000 -17.4550000 -13.6640000  28.9460000 -14.1370000
 -12.8410000  29.4320000 -14.1750000 -13.6130000  28.4510000 -13.3200000
 -13.5520000  28.9450000 -14.0380000 -11.3690000  30.5830000 -14.1350000
 -11.8920000  31.2860000 -13.7490000 -11.3570000  30.7790000 -15.0710000
 -11.4340000  30.6980000 -14.2050000  -4.3260000  25.4500000 -17.9710000
  -3.8480000  25.0970000 -18.7200000  -3.8240000  26.2220000 -17.7080000
  -4.2010000  25.5040000 -18.0330000 -15.4330000  30.8860000  -3.1410000
 -15.4700000  31.2030000  -4.0430000 -16.3040000  30.5270000  -2.9760000
 -15.5490000  30.8800000  -3.2350000  -2.4740000  16.5300000  -8.5720000
  -2.3280000  16.9350000  -7.7170000  -3.4190000  16.5980000  -8.7110000
  -2.5760000  16.5900000  -8.4800000 -12.4980000  28.5830000  -6.0870000
 -12.1730000  27.7800000  -5.6800000 -13.3670000  28.3510000  -6.4130000
 -12.5680000  28.4510000  -6.0770000 -16.8820000  29.5170000  -0.1180000
 -16.0790000  30.0270000  -0.2280000 -17.3320000  29.9350000   0.6160000
 -16.8380000  29.6360000  -0.0380000  -6.3860000  26.6650000 -10.8580000
  -5.8880000  26.4580000 -11.6490000  -6.2020000  27.5900000 -10.6940000
  -6.2990000  26.7570000 -10.9380000 -11.7610000  25.4110000 -17.1170000
 -12.2420000  24.5940000 -17.2480000 -11.3270000  25.5700000 -17.9550000
 -11.7670000  25.3270000 -17.2410000 -17.7970000  30.4480000 -16.6590000
 -17.0300000  30.1250000 -16.1840000 -18.5400000  30.2090000 -16.1040000
 -17.7950000  30.3760000 -16.5270000 -18.4600000  24.2040000  -7.9630000
 -17.6610000  23.8540000  -8.3580000 -18.4790000  23.8240000  -7.0850000
 -18.3600000  24.1100000  -7.9010000  -9.0650000  27.2610000 -10.2350000
  -9.4720000  28.0210000 -10.6510000  -8.2030000  27.1960000 -10.6450000
  -9.0070000  27.3500000 -10.3410000  -4.5280000  28.5000000 -12.7530000
  -3.8540000  28.9120000 -12.2130000  -5.3380000  28.9460000 -12.5070000
  -4.5450000  28.6100000 -12.6530000 -16.3740000  28.9910000  -9.2500000
 -15.4170000  28.9750000  -9.2690000 -16.6190000  28.1770000  -8.8100000
 -16.2840000  28.8850000  -9.1960000  -6.0710000  23.0010000  -6.7110000
  -6.5250000  23.4430000  -7.4290000  -6.6130000  23.1760000  -5.9420000
  -6.1980000  23.0800000  -6.7050000  -0.9060000  27.9290000  -7.7670000
  -1.2950000  27.4550000  -7.0310000  -1.4410000  28.7180000  -7.8530000
  -1.0240000  27.9690000  -7.6840000  -7.5320000  24.4770000  -8.9010000
  -6.9060000  24.9270000  -9.4680000  -7.6740000  23.6300000  -9.3250000
  -7.4700000  24.4260000  -9.0280000  -7.5080000  21.2220000 -16.1450000
  -8.2670000  21.4700000 -16.6730000  -6.9530000  22.0020000 -16.1440000
  -7.5340000  21.3540000 -16.2120000 -14.9740000  24.5150000 -14.4280000
 -15.0640000  24.2440000 -15.3410000 -15.8710000  24.6720000 -14.1350000
 -15.1000000  24.5010000 -14.5070000  -5.3860000  20.4060000 -11.6320000
  -6.0480000  20.8120000 -12.1920000  -4.6910000  20.1430000 -12.2350000
  -5.3820000  20.4250000 -11.7810000  -3.7730000  25.6380000  -6.2530000
  -4.0380000  24.9860000  -5.6030000  -3.5540000  25.1250000  -7.0310000
  -3.7790000  25.4890000  -6.2690000 -13.0270000  27.4310000 -12.0280000
 -12.8390000  26.6790000 -12.5900000 -12.1710000  27.8220000 -11.8580000
 -12.8940000  27.3850000 -12.0780000 -11.3710000  22.2910000  -2.7880000
 -10.4490000  22.3670000  -2.5440000 -11.8230000  22.9080000  -2.2130000
 -11.3110000  22.3790000  -2.6840000 -14.3800000  19.3010000  -9.8690000
 -14.2090000  20.2220000  -9.6700000 -13.8140000  18.8170000  -9.2680000
 -14.2860000  19.3570000  -9.7670000 -13.5260000  28.4280000  -9.4760000
 -13.2690000  28.0100000 -10.2980000 -13.4420000  27.7360000  -8.8200000
 -13.4820000  28.2860000  -9.4970000  -2.7200000  19.1670000  -0.0530000
  -3.2610000  18.6520000   0.5450000  -3.1840000  20.0000000  -0.1400000
  -2.8480000  19.2080000   0.0130000  -1.3510000  26.7180000  -4.8550000
  -2.2470000  26.3930000  -4.9420000  -1.4510000  27.6130000  -4.5300000
  -1.4790000  26.7910000  -4.8240000  -9.1550000  28.4050000 -16.8170000
  -8.4250000  29.0250000 -16.8280000  -9.9370000  28.9560000 -16.8480000
  -9.1620000  28.5550000 -16.8230000  -9.5230000  25.7860000  -7.7010000
  -9.9720000  25.0320000  -7.3190000  -8.8010000  25.4060000  -8.2010000
  -9.4880000  25.6410000  -7.7160000  -7.9880000  29.9100000  -5.9890000
  -8.2640000  30.7340000  -5.5870000  -7.0370000  29.8970000  -5.8800000
  -7.9010000  30.0140000  -5.9240000 -12.5000000  22.5230000 -13.7180000
 -12.6480000  23.4660000 -13.7960000 -13.2920000  22.1910000 -13.2940000
 -12.6200000  22.6010000 -13.6740000  -8.8490000  22.8670000  -1.2990000
  -9.3150000  23.4650000  -0.7150000  -8.2540000  23.4310000  -1.7940000
  -8.8330000  23.0150000  -1.2880000 -13.2440000  23.0120000 -17.1230000
 -14.1610000  22.7970000 -16.9570000 -12.7690000  22.6240000 -16.3880000
 -13.3010000  22.9350000 -17.0080000 -16.6020000  27.7580000  -3.8520000
 -17.2810000  28.3970000  -3.6320000 -17.0120000  26.9090000  -3.6890000
 -16.7420000  27.7310000  -3.8030000 -18.4540000  20.6670000  -5.2700000
 -17.5920000  20.6280000  -4.8560000 -18.2680000  20.8170000  -6.1970000
 -18.3200000  20.6810000  -5.3360000  -7.5370000  28.2000000  -7.9030000
  -7.8050000  28.8430000  -7.2460000  -8.3360000  28.0180000  -8.3990000
  -7.6740000  28.2590000  -7.8830000 -18.9950000  25.8380000  -1.2830000
 -19.5950000  26.5710000  -1.1420000 -18.4480000  25.8210000  -0.4970000
 -19.0020000  25.9300000  -1.1640000 -17.6400000  24.7390000 -13.2400000
 -17.2390000  25.3240000 -12.5960000 -18.1030000  25.3240000 -13.8390000
 -17.6470000  24.8890000 -13.2340000  -7.5600000  26.5340000  -5.3410000
  -7.7230000  26.8430000  -6.2320000  -8.4210000  26.2700000  -5.0180000
  -7.6910000  26.5400000  -5.4130000  -7.3380000  20.7550000  -1.2030000
  -7.3410000  20.4650000  -2.1150000  -8.0100000  21.4360000  -1.1660000
  -7.4250000  20.8050000  -1.3150000 -15.6790000  19.4180000 -17.1950000
 -15.6780000  20.1600000 -16.5910000 -15.1750000  19.7220000 -17.9490000
 -15.6140000  19.5520000 -17.2140000  -7.6280000  30.1970000  -2.8050000
  -8.4460000  30.0410000  -3.2760000  -7.5800000  31.1490000  -2.7160000
  -7.7260000  30.2990000  -2.8540000  -3.2780000  24.8930000  -1.5740000
  -2.5650000  24.2610000  -1.4790000  -2.8380000  25.7300000  -1.7200000
  -3.1310000  24.9190000  -1.5810000 -17.2500000  26.6750000  -8.0520000
 -18.0280000  27.1810000  -7.8210000 -17.5120000  25.7620000  -7.9290000
 -17.3820000  26.6230000  -8.0070000 -14.1530000  30.8320000 -10.9460000
 -14.2400000  31.6120000 -10.3970000 -14.0810000  30.1080000 -10.3230000
 -14.1550000  30.8390000 -10.7960000 -18.5220000  21.9160000 -15.7410000
 -18.5790000  21.6620000 -16.6620000 -19.0700000  22.6980000 -15.6730000
 -18.6000000  21.9840000 -15.8500000 -14.0510000  25.9730000  -3.7620000
 -14.1420000  25.8530000  -4.7070000 -14.7750000  26.5510000  -3.5240000
 -14.1550000  26.0320000  -3.8530000 -12.9690000  19.4890000 -12.3100000
 -13.3740000  19.1580000 -11.5080000 -12.8620000  18.7150000 -12.8620000
 -13.0070000  19.3480000 -12.2780000 -12.4260000  25.5350000 -14.4240000
 -12.0530000  25.4700000 -15.3030000 -13.3310000  25.2390000 -14.5250000
 -12.4940000  25.4880000 -14.5490000 -10.2810000  22.4320000 -12.0390000
 -11.1330000  22.2940000 -12.4510000 -10.2310000  23.3790000 -11.9030000
 -10.3830000  22.5360000 -12.0740000 -15.4090000  23.1000000  -2.8480000
 -14.6180000  23.1330000  -3.3850000 -15.7690000  23.9860000  -2.8960000
 -15.3540000  23.2170000  -2.9230000  -9.2360000  26.1030000 -18.8000000
  -9.2550000  26.7530000 -18.0980000  -8.8810000  25.3150000 -18.3880000
  -9.1930000  26.0860000 -18.6580000  -4.2530000  21.3530000  -1.3790000
  -4.1920000  21.0060000  -2.2690000  -5.1930000  21.4010000  -1.2050000
  -4.3660000  21.3150000  -1.4710000  -4.1360000  20.3260000  -9.0780000
  -3.2650000  19.9330000  -9.0210000  -4.2350000  20.5570000 -10.0010000
  -4.0370000  20.3050000  -9.1890000  -7.2280000  20.5930000  -3.9440000
  -7.4880000  19.8170000  -4.4410000  -6.2720000  20.5980000  -3.9920000
  -7.1390000  20.4940000  -4.0140000  -4.1110000  24.1910000 -13.8300000
  -4.3320000  23.9410000 -12.9320000  -3.2950000  23.7250000 -14.0130000
  -4.0350000  24.0990000 -13.7380000 -10.3080000  22.7410000  -8.6630000
 -11.1590000  22.3100000  -8.7500000 -10.2090000  22.8880000  -7.7220000
 -10.4050000  22.7050000  -8.5540000 -11.6770000  19.7620000  -1.5120000
 -12.2300000  20.0730000  -0.7960000 -11.6160000  20.5080000  -2.1090000
 -11.7400000  19.8970000  -1.4970000  -1.4200000  24.2150000 -15.9940000
  -2.2430000  23.7280000 -16.0420000  -1.6720000  25.0790000 -15.6660000
  -1.5570000  24.2630000 -15.9580000  -4.3630000  31.5480000  -1.9750000
  -5.0030000  31.0150000  -1.5030000  -4.4010000  31.2250000  -2.8760000
  -4.4500000  31.4380000  -2.0300000 -16.3340000  22.8960000  -9.0490000
 -16.4270000  22.4290000  -9.8790000 -15.5100000  22.5730000  -8.6840000
 -16.2400000  22.7950000  -9.1080000  -1.6960000  29.3850000  -4.1580000
  -2.5870000  29.6010000  -3.8800000  -1.4190000  30.1380000  -4.6800000
  -1.7750000  29.5090000  -4.1890000 -14.1700000  22.1540000  -7.7930000
 -13.7180000  21.5750000  -7.1790000 -13.6070000  22.1690000  -8.5660000
 -14.0400000  22.0820000  -7.8130000 -17.5880000  25.2540000  -3.5240000
 -18.1550000  25.6150000  -4.2060000 -18.0850000  25.3700000  -2.7140000
 -17.7240000  25.3150000  -3.5080000  -4.2690000  30.4240000  -4.3740000
  -4.8790000  29.6880000  -4.3180000  -4.7010000  31.0480000  -4.9570000
  -4.4020000  30.4090000  -4.4410000 -15.1710000  31.0120000  -5.9490000
 -15.6320000  31.3560000  -6.7140000 -15.0900000  30.0740000  -6.1210000
 -15.2200000  30.9360000  -6.0690000 -16.9750000  28.6530000 -13.7640000
 -16.0190000  28.6850000 -13.7370000 -17.2460000  29.5700000 -13.7260000
 -16.8870000  28.7740000 -13.7560000 -12.1350000  24.1120000  -0.8210000
 -12.9000000  23.7150000  -0.4030000 -12.3890000  25.0230000  -0.9690000
 -12.2660000  24.1780000  -0.7860000 -15.6160000  21.9430000 -15.7930000
 -15.3090000  22.0080000 -14.8890000 -16.5350000  21.6850000 -15.7140000
 -15.6940000  21.9180000 -15.6670000  -6.3070000  26.2040000 -13.4090000
  -5.6870000  26.6480000 -13.9880000  -7.1170000  26.7080000 -13.4940000
  -6.3310000  26.3260000 -13.4940000  -4.5540000  21.8960000  -4.4770000
  -4.8410000  22.7220000  -4.0860000  -4.7770000  21.9800000  -5.4040000
  -4.6200000  22.0130000  -4.5450000  -0.5390000  23.2320000 -11.9910000
   0.0430000  23.7170000 -12.5770000  -1.1050000  23.9020000 -11.6080000
  -0.5370000  23.3800000 -12.0170000  -6.1600000  30.0080000  -0.6830000
  -6.9710000  30.0460000  -1.1900000  -5.7960000  29.1450000  -0.8780000
  -6.2170000  29.9030000  -0.7730000 -12.8200000  22.0510000 -10.1250000
 -12.9980000  22.6410000 -10.8570000 -12.3350000  21.3240000 -10.5150000
 -12.7810000  22.0340000 -10.2680000 -19.2150000  28.6410000 -11.5480000
 -18.6180000  28.8970000 -12.2520000 -18.9120000  29.1360000 -10.7860000
 -19.1000000  28.7370000 -11.5410000  -2.8460000  29.7380000 -10.7620000
  -1.9930000  29.3970000 -11.0320000  -2.8240000  29.7090000  -9.8060000
  -2.7340000  29.6900000 -10.6750000  -9.9160000  26.6490000  -2.8570000
 -10.6700000  26.3190000  -3.3460000 -10.1170000  26.4510000  -1.9430000
 -10.0380000  26.5810000  -2.8030000  -6.3660000  25.9720000  -0.7880000
  -7.1500000  25.9330000  -0.2400000  -5.7290000  25.4210000  -0.3340000
  -6.3850000  25.8970000  -0.6600000  -0.7700000  19.7640000 -11.2540000
  -1.3660000  19.4140000 -10.5920000  -0.0520000  19.1320000 -11.2890000
  -0.7540000  19.6390000 -11.1740000  -4.7000000  30.4090000 -15.5470000
  -4.3040000  30.7500000 -14.7450000  -4.2090000  30.8280000 -16.2540000
  -4.5870000  30.5060000 -15.5350000  -4.9710000  24.4950000  -3.5850000
  -4.2780000  24.6890000  -2.9530000  -5.6070000  25.2010000  -3.4670000
  -4.9640000  24.6100000  -3.4890000 -12.3940000  21.4360000 -24.1260000
 -12.1660000  21.4080000 -23.1970000 -13.0230000  20.7240000 -24.2390000
 -12.4450000  21.3410000 -24.0210000 -14.4780000  19.7220000 -24.6200000
 -15.0380000  20.1700000 -23.9860000 -14.6240000  18.7910000 -24.4530000
 -14.5680000  19.6600000 -24.5180000 -13.6590000  27.9630000 -35.3720000
 -13.8140000  28.4200000 -34.5450000 -12.9470000  27.3530000 -35.1800000
 -13.5880000  27.9430000 -35.2420000 -10.2640000  23.1720000 -24.7670000
 -10.8670000  22.5310000 -24.3920000  -9.4750000  23.1030000 -24.2290000
 -10.2400000  23.0820000 -24.6500000  -9.7260000  19.6090000 -18.4890000
  -8.8340000  19.3800000 -18.7530000 -10.2480000  19.4880000 -19.2820000
  -9.6780000  19.5650000 -18.6240000  -7.8410000  22.9980000 -23.4990000
  -7.6630000  22.1160000 -23.1730000  -7.5220000  23.5780000 -22.8070000
  -7.7770000  22.9590000 -23.3680000  -2.4010000  21.6260000 -32.0000000
  -2.3330000  20.6790000 -32.1240000  -1.5320000  21.8910000 -31.6990000
  -2.2810000  21.5390000 -31.9770000  -1.2820000  25.9170000 -30.1590000
  -2.0610000  26.0270000 -29.6140000  -0.9380000  26.8030000 -30.2680000
  -1.3380000  26.0440000 -30.1030000 -10.1860000  22.0450000 -36.0110000
 -10.4520000  21.5820000 -35.2160000 -10.1700000  21.3680000 -36.6870000
 -10.2180000  21.8990000 -35.9950000  -9.9510000  29.2330000 -22.7270000
 -10.0790000  28.3680000 -22.3380000  -9.5080000  29.0580000 -23.5580000
  -9.9110000  29.1000000 -22.7840000  -7.0750000  30.1850000 -35.7080000
  -6.3050000  30.2060000 -35.1410000  -6.7560000  29.8180000 -36.5320000
  -6.9360000  30.1410000 -35.7410000  -1.3390000  29.8220000 -33.9780000
  -1.7050000  30.4630000 -33.3680000  -2.1040000  29.4000000 -34.3700000
  -1.4840000  29.8500000 -33.9500000 -18.8270000  23.5630000 -24.1700000
 -18.5500000  24.1320000 -23.4520000 -19.4290000  22.9400000 -23.7630000
 -18.8680000  23.5560000 -24.0260000 -17.9540000  29.9000000 -21.5770000
 -18.8750000  29.6800000 -21.7170000 -17.8750000  30.0070000 -20.6300000
 -18.0620000  29.8850000 -21.4740000  -3.0140000  21.8520000 -34.8730000
  -2.8820000  21.7080000 -33.9360000  -3.8820000  22.2510000 -34.9330000
  -3.1080000  21.8840000 -34.7600000 -14.2520000  24.1690000 -30.6000000
 -14.6590000  24.1680000 -31.4670000 -14.7380000  24.8320000 -30.1090000
 -14.3660000  24.2540000 -30.6480000 -16.1340000  20.5650000 -22.5820000
 -15.9260000  21.4630000 -22.3250000 -16.4890000  20.1640000 -21.7890000
 -16.1520000  20.6280000 -22.4480000 -14.8250000  21.3560000 -31.8820000
 -15.5840000  21.3430000 -31.2970000 -14.2930000  20.6120000 -31.6010000
 -14.8540000  21.2590000 -31.7710000  -7.7850000  25.0540000 -21.5830000
  -7.1990000  25.3670000 -20.8940000  -8.5110000  25.6790000 -21.5830000
  -7.8030000  25.1740000 -21.4950000 -10.1650000  25.5550000 -32.0510000
 -10.9900000  25.5370000 -32.5360000 -10.4160000  25.3690000 -31.1460000
 -10.3030000  25.5290000 -31.9970000 -18.2650000  23.5670000 -18.5290000
 -18.4630000  23.6480000 -19.4610000 -19.0580000  23.8700000 -18.0880000
 -18.3910000  23.6160000 -18.5920000 -15.3400000  27.1770000 -37.3810000
 -15.9430000  27.9140000 -37.4770000 -14.7110000  27.4670000 -36.7200000
 -15.3370000  27.3080000 -37.3090000 -12.1900000  26.1300000 -27.1060000
 -11.3090000  26.4220000 -26.8740000 -12.1040000  25.7960000 -27.9990000
 -12.0660000  26.1250000 -27.1910000  -7.8930000  21.9490000 -28.9220000
  -8.8450000  21.8860000 -28.8510000  -7.5650000  21.2210000 -28.3940000
  -7.9730000  21.8480000 -28.8450000  -2.7640000  29.9570000 -26.8000000
  -2.3240000  30.4640000 -26.1170000  -3.4360000  29.4600000 -26.3340000
  -2.7930000  29.9580000 -26.6530000 -12.2440000  29.4780000 -19.7360000
 -12.4010000  28.5340000 -19.7720000 -12.3340000  29.7700000 -20.6430000
 -12.2760000  29.3940000 -19.8570000  -5.4140000  23.2740000 -35.0580000
  -5.3100000  23.6180000 -34.1710000  -5.5440000  24.0500000 -35.6030000
  -5.4170000  23.4170000 -35.0140000  -2.7720000  24.1220000 -27.7310000
  -1.8600000  24.1330000 -27.4380000  -2.7720000  23.5370000 -28.4890000
  -2.6550000  24.0480000 -27.7900000  -4.9270000  28.4590000 -25.8800000
  -5.8020000  28.2020000 -26.1700000  -4.5750000  27.6760000 -25.4560000
  -4.9940000  28.3260000 -25.8630000 -13.1850000  20.4480000 -37.0710000
 -12.8430000  20.4570000 -36.1770000 -13.6700000  21.2700000 -37.1490000
 -13.2030000  20.5550000 -36.9670000 -18.0160000  20.3640000 -27.1670000
 -17.1830000  20.8180000 -27.2910000 -18.6040000  20.7630000 -27.8070000
 -17.9850000  20.4730000 -27.2640000 -16.9170000  19.4970000 -20.1550000
 -17.7500000  19.0700000 -19.9540000 -16.9510000  20.3240000 -19.6750000
 -17.0280000  19.5480000 -20.0680000 -10.5820000  24.9590000 -29.4170000
 -10.4960000  24.1750000 -28.8740000 -10.1420000  25.6460000 -28.9170000
 -10.5150000  24.9470000 -29.2840000  -1.9200000  22.5770000 -20.0770000
  -2.8190000  22.2490000 -20.0820000  -1.5950000  22.4000000 -20.9590000
  -1.9940000  22.5120000 -20.1900000  -3.4860000  19.0980000 -35.2030000
  -3.3580000  20.0130000 -35.4550000  -4.4350000  19.0030000 -35.1180000
  -3.5910000  19.2030000 -35.2240000  -0.3110000  20.4360000 -37.2020000
  -0.4870000  21.2770000 -37.6230000  -1.1200000  19.9370000 -37.3160000
  -0.4370000  20.4800000 -37.2700000   2.2580000  26.3640000 -29.8240000
   2.2720000  26.0510000 -28.9190000   2.2090000  27.3170000 -29.7470000
   2.2540000  26.4460000 -29.6980000  -8.3490000  24.3000000 -35.9410000
  -8.9750000  23.5760000 -35.9170000  -8.1310000  24.4590000 -35.0230000
  -8.4010000  24.2280000 -35.8210000 -11.6110000  25.9480000 -23.8210000
 -12.4560000  25.6280000 -23.5040000 -11.1380000  25.1570000 -24.0800000
 -11.6590000  25.8060000 -23.8130000 -14.6840000  31.1340000 -19.4870000
 -13.8730000  30.6460000 -19.6290000 -14.9530000  31.4110000 -20.3630000
 -14.6150000  31.1070000 -19.6180000  -1.8830000  21.8150000 -22.6460000
  -2.7490000  21.6510000 -23.0170000  -1.3010000  21.2230000 -23.1240000
  -1.9190000  21.7180000 -22.7550000  -2.1770000  27.2650000 -35.9400000
  -2.6340000  27.0240000 -35.1340000  -1.2510000  27.1250000 -35.7410000
  -2.1170000  27.2160000 -35.8110000 -12.4220000  30.1740000 -22.4590000
 -11.5420000  29.8010000 -22.5110000 -12.9600000  29.5930000 -22.9960000
 -12.3780000  30.0520000 -22.5340000  -4.0520000  22.9820000 -30.3520000
  -3.3560000  22.5960000 -30.8850000  -4.6620000  22.2600000 -30.1970000
  -4.0410000  22.8400000 -30.4010000  -5.9780000  28.4310000 -22.8100000
  -6.5350000  28.0370000 -23.4820000  -6.5540000  29.0410000 -22.3500000
  -6.1230000  28.4590000 -22.8370000  -2.0640000  27.6920000 -19.6160000
  -2.8870000  28.0320000 -19.9650000  -2.2080000  27.6360000 -18.6710000
  -2.1870000  27.7280000 -19.5400000  -8.1510000  24.4180000 -33.2770000
  -8.9740000  24.7010000 -32.8810000  -7.4730000  24.8040000 -32.7220000
  -8.1690000  24.5030000 -33.1550000 -15.1390000  28.0090000 -25.1840000
 -15.5160000  27.8820000 -24.3140000 -15.7020000  27.4980000 -25.7660000
 -15.2590000  27.9280000 -25.1470000  -6.1320000  29.5190000 -29.7290000
  -5.5870000  30.0200000 -29.1220000  -6.8260000  30.1260000 -29.9860000
  -6.1510000  29.6600000 -29.6840000 -18.1490000  31.0850000 -28.9080000
 -17.7550000  31.0150000 -29.7780000 -17.5370000  30.6300000 -28.3310000
 -18.0200000  31.0180000 -28.9460000  -3.4280000  26.7650000 -33.5360000
  -3.4710000  27.3840000 -32.8060000  -3.7940000  25.9540000 -33.1840000
  -3.4800000  26.7410000 -33.3970000  -8.6780000  27.6290000 -33.0570000
  -9.3500000  26.9480000 -33.0270000  -8.5990000  27.8460000 -33.9860000
  -8.7540000  27.5700000 -33.1720000 -14.9910000  22.4820000 -19.0940000
 -15.1440000  22.7620000 -19.9960000 -15.2280000  23.2420000 -18.5630000
 -15.0410000  22.6150000 -19.1410000 -13.0590000  26.6030000 -19.9880000
 -13.1730000  26.3190000 -20.8950000 -13.9490000  26.7060000 -19.6550000
 -13.1870000  26.5800000 -20.0620000 -14.0130000  24.9300000 -25.1420000
 -14.6030000  24.1910000 -25.2940000 -13.4010000  24.9020000 -25.8770000
 -14.0100000  24.8320000 -25.2560000 -12.6280000  31.1220000 -27.1100000
 -12.6680000  30.1670000 -27.1470000 -13.0840000  31.3500000 -26.3000000
 -12.6910000  31.0290000 -27.0110000  -4.6630000  27.7750000 -20.4280000
  -5.3540000  27.1350000 -20.2600000  -4.8710000  28.1310000 -21.2910000
  -4.7780000  27.7380000 -20.5170000 -19.0450000  26.8770000 -33.2910000
 -18.3800000  27.4770000 -32.9530000 -19.8770000  27.3110000 -33.1020000
 -19.0660000  27.0090000 -33.2230000 -11.2980000  30.0580000 -36.0020000
 -11.6810000  29.7490000 -36.8230000 -11.0590000  30.9690000 -36.1770000
 -11.3160000  30.1350000 -36.1290000 -17.0420000  21.5130000 -30.3240000
 -17.2800000  20.6940000 -30.7580000 -17.8030000  22.0810000 -30.4510000
 -17.1700000  21.4810000 -30.3960000 -12.4710000  20.3280000 -34.3200000
 -12.2260000  19.4530000 -34.0190000 -12.6860000  20.8050000 -33.5190000
 -12.4670000  20.2770000 -34.1790000  -7.2390000  22.0770000 -31.7820000
  -7.5330000  22.7920000 -32.3460000  -7.5100000  22.3380000 -30.9020000
  -7.3110000  22.2020000 -31.7420000 -15.6340000  24.5930000 -36.2860000
 -16.5580000  24.3500000 -36.2480000 -15.6370000  25.5130000 -36.5510000
 -15.7510000  24.6800000 -36.3150000 -13.6640000  28.9460000 -32.9970000
 -12.8410000  29.4320000 -33.0350000 -13.6130000  28.4510000 -32.1800000
 -13.5520000  28.9450000 -32.8980000 -11.3690000  30.5830000 -32.9950000
 -11.8920000  31.2860000 -32.6090000 -11.3570000  30.7790000 -33.9310000
 -11.4340000  30.6980000 -33.0650000  -4.3260000  25.4500000 -36.8310000
  -3.8480000  25.0970000 -37.5800000  -3.8240000  26.2220000 -36.5680000
  -4.2010000  25.5040000 -36.8930000 -15.4330000  30.8860000 -22.0010000
 -15.4700000  31.2030000 -22.9030000 -16.3040000  30.5270000 -21.8360000
 -15.5490000  30.8800000 -22.0950000  -2.4740000  16.5300000 -27.4320000
  -2.3280000  16.9350000 -26.5770000  -3.4190000  16.5980000 -27.5710000
  -2.5760000  16.5900000 -27.3400000 -12.4980000  28.5830000 -24.9470000
 -12.1730000  27.7800000 -24.5400000 -13.3670000  28.3510000 -25.2730000
 -12.5680000  28.4510000 -24.9370000 -16.8820000  29.5170000 -18.9780000
 -16.0790000  30.0270000 -19.0880000 -17.3320000  29.9350000 -18.2440000
 -16.8380000  29.6360000 -18.8980000  -6.3860000  26.6650000 -29.7180000
  -5.8880000  26.4580000 -30.5090000  -6.2020000  27.5900000 -29.5540000
  -6.2990000  26.7570000 -29.7980000 -11.7610000  25.4110000 -35.9770000
 -12.2420000  24.5940000 -36.1080000 -11.3270000  25.5700000 -36.8150000
 -11.7670000  25.3270000 -36.1010000 -17.7970000  30.4480000 -35.5190000
 -17.0300000  30.1250000 -35.0440000 -18.5400000  30.2090000 -34.9640000
 -17.7950000  30.3760000 -35.3870000 -18.4600000  24.2040000 -26.8230000
 -17.6610000  23.8540000 -27.2180000 -18.4790000  23.8240000 -25.9450000
 -18.3600000  24.1100000 -26.7610000  -9.0650000  27.2610000 -29.0950000
  -9.4720000  28.0210000 -29.5110000  -8.2030000  27.1960000 -29.5050000
  -9.0070000  27.3500000 -29.2010000  -4.5280000  28.5000000 -31.6130000
  -3.8540000  28.9120000 -31.0730000  -5.3380000  28.9460000 -31.3670000
  -4.5450000  28.6100000 -31.5130000 -16.3740000  28.9910000 -28.1100000
 -15.4170000  28.9750000 -28.1290000 -16.6190000  28.1770000 -27.6700000
 -16.2840000  28.8850000 -28.0560000  -6.0710000  23.0010000 -25.5710000
  -6.5250000  23.4430000 -26.2890000  -6.6130000  23.1760000 -24.8020000
  -6.1980000  23.0800000 -25.5650000  -0.9060000  27.9290000 -26.6270000
  -1.2950000  27.4550000 -25.8910000  -1.4410000  28.7180000 -26.7130000
  -1.0240000  27.9690000 -26.5440000  -7.5320000  24.4770000 -27.7610000
  -6.9060000  24.9270000 -28.3280000  -7.6740000  23.6300000 -28.1850000
  -7.4700000  24.4260000 -27.8880000  -7.5080000  21.2220000 -35.0050000
  -8.2670000  21.4700000 -35.5330000  -6.9530000  22.0020000 -35.0040000
  -7.5340000  21.3540000 -35.0720000 -14.9740000  24.5150000 -33.2880000
 -15.0640000  24.2440000 -34.2010000 -15.8710000  24.6720000 -32.9950000
 -15.1000000  24.5010000 -33.3670000  -5.3860000  20.4060000 -30.4920000
  -6.0480000  20.8120000 -31.0520000  -4.6910000  20.1430000 -31.0950000
  -5.3820000  20.4250000 -30.6410000  -3.7730000  25.6380000 -25.1130000
  -4.0380000  24.9860000 -24.4630000  -3.5540000  25.1250000 -25.8910000
  -3.7790000  25.4890000 -25.1290000 -13.0270000  27.4310000 -30.8880000
 -12.8390000  26.6790000 -31.4500000 -12.1710000  27.8220000 -30.7180000
 -12.8940000  27.3850000 -30.9380000 -11.3710000  22.2910000 -21.6480000
 -10.4490000  22.3670000 -21.4040000 -11.8230000  22.9080000 -21.0730000
 -11.3110000  22.3790000 -21.5440000 -13.5260000  28.4280000 -28.3360000
 -13.2690000  28.0100000 -29.1580000 -13.4420000  27.7360000 -27.6800000
 -13.4820000  28.2860000 -28.3570000  -2.7200000  19.1670000 -18.9130000
  -3.2610000  18.6520000 -18.3150000  -3.1840000  20.0000000 -19.0000000
  -2.8480000  19.2080000 -18.8470000  -1.3510000  26.7180000 -23.7150000
  -2.2470000  26.3930000 -23.8020000  -1.4510000  27.6130000 -23.3900000
  -1.4790000  26.7910000 -23.6840000  -9.1550000  28.4050000 -35.6770000
  -8.4250000  29.0250000 -35.6880000  -9.9370000  28.9560000 -35.7080000
  -9.1620000  28.5550000 -35.6830000  -9.5230000  25.7860000 -26.5610000
  -9.9720000  25.0320000 -26.1790000  -8.8010000  25.4060000 -27.0610000
  -9.4880000  25.6410000 -26.5760000  -7.9880000  29.9100000 -24.8490000
  -8.2640000  30.7340000 -24.4470000  -7.0370000  29.8970000 -24.7400000
  -7.9010000  30.0140000 -24.7840000 -12.5000000  22.5230000 -32.5780000
 -12.6480000  23.4660000 -32.6560000 -13.2920000  22.1910000 -32.1540000
 -12.6200000  22.6010000 -32.5340000  -8.8490000  22.8670000 -20.1590000
  -9.3150000  23.4650000 -19.5750000  -8.2540000  23.4310000 -20.6540000
  -8.8330000  23.0150000 -20.1480000 -13.2440000  23.0120000 -35.9830000
 -14.1610000  22.7970000 -35.8170000 -12.7690000  22.6240000 -35.2480000
 -13.3010000  22.9350000 -35.8680000 -16.6020000  27.7580000 -22.7120000
 -17.2810000  28.3970000 -22.4920000 -17.0120000  26.9090000 -22.5490000
 -16.7420000  27.7310000 -22.6630000 -18.4540000  20.6670000 -24.1300000
 -17.5920000  20.6280000 -23.7160000 -18.2680000  20.8170000 -25.0570000
 -18.3200000  20.6810000 -24.1960000  -7.5370000  28.2000000 -26.7630000
  -7.8050000  28.8430000 -26.1060000  -8.3360000  28.0180000 -27.2590000
  -7.6740000  28.2590000 -26.7430000 -18.9950000  25.8380000 -20.1430000
 -19.5950000  26.5710000 -20.0020000 -18.4480000  25.8210000 -19.3570000
 -19.0020000  25.9300000 -20.0240000 -17.6400000  24.7390000 -32.1000000
 -17.2390000  25.3240000 -31.4560000 -18.1030000  25.3240000 -32.6990000
 -17.6470000  24.8890000 -32.0940000  -7.5600000  26.5340000 -24.2010000
  -7.7230000  26.8430000 -25.0920000  -8.4210000  26.2700000 -23.8780000
  -7.6910000  26.5400000 -24.2730000  -7.3380000  20.7550000 -20.0630000
  -7.3410000  20.4650000 -20.9750000  -8.0100000  21.4360000 -20.0260000
  -7.4250000  20.8050000 -20.1750000 -15.6790000  19.4180000 -36.0550000
 -15.6780000  20.1600000 -35.4510000 -15.1750000  19.7220000 -36.8090000
 -15.6140000  19.5520000 -36.0740000  -7.6280000  30.1970000 -21.6650000
  -8.4460000  30.0410000 -22.1360000  -7.5800000  31.1490000 -21.5760000
  -7.7260000  30.2990000 -21.7140000  -3.2780000  24.8930000 -20.4340000
  -2.5650000  24.2610000 -20.3390000  -2.8380000  25.7300000 -20.5800000
  -3.1310000  24.9190000 -20.4410000 -17.2500000  26.6750000 -26.9120000
 -18.0280000  27.1810000 -26.6810000 -17.5120000  25.7620000 -26.7890000
 -17.3820000  26.6230000 -26.8670000 -14.1530000  30.8320000 -29.8060000
 -14.2400000  31.6120000 -29.2570000 -14.0810000  30.1080000 -29.1830000
 -14.1550000  30.8390000 -29.6560000 -18.5220000  21.9160000 -34.6010000
 -18.5790000  21.6620000 -35.5220000 -19.0700000  22.6980000 -34.5330000
 -18.6000000  21.9840000 -34.7100000 -14.0510000  25.9730000 -22.6220000
 -14.1420000  25.8530000 -23.5670000 -14.7750000  26.5510000 -22.3840000
 -14.1550000  26.0320000 -22.7130000 -12.9690000  19.4890000 -31.1700000
 -13.3740000  19.1580000 -30.3680000 -12.8620000  18.7150000 -31.7220000
 -13.0070000  19.3480000 -31.1380000 -12.4260000  25.5350000 -33.2840000
 -12.0530000  25.4700000 -34.1630000 -13.3310000  25.2390000 -33.3850000
 -12.4940000  25.4880000 -33.4090000 -10.2810000  22.4320000 -30.8990000
 -11.1330000  22.2940000 -31.3110000 -10.2310000  23.3790000 -30.7630000
 -10.3830000  22.5360000 -30.9340000 -15.4090000  23.1000000 -21.7080000
 -14.6180000  23.1330000 -22.2450000 -15.7690000  23.9860000 -21.7560000
 -15.3540000  23.2170000 -21.7830000  -9.2360000  26.1030000 -37.6600000
  -9.2550000  26.7530000 -36.9580000  -8.8810000  25.3150000 -37.2480000
  -9.1930000  26.0860000 -37.5180000  -4.2530000  21.3530000 -20.2390000
  -4.1920000  21.0060000 -21.1290000  -5.1930000  21.4010000 -20.0650000
  -4.3660000  21.3150000 -20.3310000  -9.5630000  20.6060000 -32.8080000
  -9.7880000  21.3910000 -32.3090000  -8.6640000  20.7580000 -33.1000000
  -9.4760000  20.7260000 -32.7810000  -4.1360000  20.3260000 -27.9380000
  -3.2650000  19.9330000 -27.8810000  -4.2350000  20.5570000 -28.8610000
  -4.0370000  20.3050000 -28.0490000  -7.2280000  20.5930000 -22.8040000
  -7.4880000  19.8170000 -23.3010000  -6.2720000  20.5980000 -22.8520000
  -7.1390000  20.4940000 -22.8740000  -4.1110000  24.1910000 -32.6900000
  -4.3320000  23.9410000 -31.7920000  -3.2950000  23.7250000 -32.8730000
  -4.0350000  24.0990000 -32.5980000 -10.3080000  22.7410000 -27.5230000
 -11.1590000  22.3100000 -27.6100000 -10.2090000  22.8880000 -26.5820000
 -10.4050000  22.7050000 -27.4140000 -11.6770000  19.7620000 -20.3720000
 -12.2300000  20.0730000 -19.6560000 -11.6160000  20.5080000 -20.9690000
 -11.7400000  19.8970000 -20.3570000  -1.4200000  24.2150000 -34.8540000
  -2.2430000  23.7280000 -34.9020000  -1.6720000  25.0790000 -34.5260000
  -1.5570000  24.2630000 -34.8180000  -4.3630000  31.5480000 -20.8350000
  -5.0030000  31.0150000 -20.3630000  -4.4010000  31.2250000 -21.7360000
  -4.4500000  31.4380000 -20.8900000 -16.3340000  22.8960000 -27.9090000
 -16.4270000  22.4290000 -28.7390000 -15.5100000  22.5730000 -27.5440000
 -16.2400000  22.7950000 -27.9680000  -1.6960000  29.3850000 -23.0180000
  -2.5870000  29.6010000 -22.7400000  -1.4190000  30.1380000 -23.5400000
  -1.7750000  29.5090000 -23.0490000 -14.1700000  22.1540000 -26.6530000
 -13.7180000  21.5750000 -26.0390000 -13.6070000  22.1690000 -27.4260000
 -14.0400000  22.0820000 -26.6730000 -17.5880000  25.2540000 -22.3840000
 -18.1550000  25.6150000 -23.0660000 -18.0850000  25.3700000 -21.5740000
 -17.7240000  25.3150000 -22.3680000  -4.2690000  30.4240000 -23.2340000
  -4.8790000  29.6880000 -23.1780000  -4.7010000  31.0480000 -23.8170000
  -4.4020000  30.4090000 -23.3010000 -15.1710000  31.0120000 -24.8090000
 -15.6320000  31.3560000 -25.5740000 -15.0900000  30.0740000 -24.9810000
 -15.2200000  30.9360000 -24.9290000 -16.9750000  28.6530000 -32.6240000
 -16.0190000  28.6850000 -32.5970000 -17.2460000  29.5700000 -32.5860000
 -16.8870000  28.7740000 -32.6160000 -12.1350000  24.1120000 -19.6810000
 -12.9000000  23.7150000 -19.2630000 -12.3890000  25.0230000 -19.8290000
 -12.2660000  24.1780000 -19.6460000 -15.6160000  21.9430000 -34.6530000
 -15.3090000  22.0080000 -33.7490000 -16.5350000  21.6850000 -34.5740000
 -15.6940000  21.9180000 -34.5270000  -6.3070000  26.2040000 -32.2690000
  -5.6870000  26.6480000 -32.8480000  -7.1170000  26.7080000 -32.3540000
  -6.3310000  26.3260000 -32.3540000 -10.5960000  28.6670000 -30.8960000
 -10.0820000  28.0670000 -31.4360000 -10.8700000  29.3570000 -31.5000000
 -10.5660000  28.6780000 -31.0420000  -4.5540000  21.8960000 -23.3370000
  -4.8410000  22.7220000 -22.9460000  -4.7770000  21.9800000 -24.2640000
  -4.6200000  22.0130000 -23.4050000  -0.5390000  23.2320000 -30.8510000
   0.0430000  23.7170000 -31.4370000  -1.1050000  23.9020000 -30.4680000
  -0.5370000  23.3800000 -30.8770000  -6.1600000  30.0080000 -19.5430000
  -6.9710000  30.0460000 -20.0500000  -5.7960000  29.1450000 -19.7380000
  -6.2170000  29.9030000 -19.6330000 -12.8200000  22.0510000 -28.9850000
 -12.9980000  22.6410000 -29.7170000 -12.3350000  21.3240000 -29.3750000
 -12.7810000  22.0340000 -29.1280000 -19.2150000  28.6410000 -30.4080000
 -18.6180000  28.8970000 -31.1120000 -18.9120000  29.1360000 -29.6460000
 -19.1000000  28.7370000 -30.4010000  -2.8460000  29.7380000 -29.6220000
  -1.9930000  29.3970000 -29.8920000  -2.8240000  29.7090000 -28.6660000
  -2.7340000  29.6900000 -29.5350000  -9.9160000  26.6490000 -21.7170000
 -10.6700000  26.3190000 -22.2060000 -10.1170000  26.4510000 -20.8030000
 -10.0380000  26.5810000 -21.6630000  -6.3660000  25.9720000 -19.6480000
  -7.1500000  25.9330000 -19.1000000  -5.7290000  25.4210000 -19.1940000
  -6.3850000  25.8970000 -19.5200000  -0.7700000  19.7640000 -30.1140000
  -1.3660000  19.4140000 -29.4520000  -0.0520000  19.1320000 -30.1490000
  -0.7540000  19.6390000 -30.0340000  -4.7000000  30.4090000 -34.4070000
  -4.3040000  30.7500000 -33.6050000  -4.2090000  30.8280000 -35.1140000
  -4.5870000  30.5060000 -34.3950000  -4.9710000  24.4950000 -22.4450000
  -4.2780000  24.6890000 -21.8130000  -5.6070000  25.2010000 -22.3270000
  -4.9640000  24.6100000 -22.3490000 -12.3940000  21.4360000 -42.9860000
 -12.1660000  21.4080000 -42.0570000 -13.0230000  20.7240000 -43.0990000
 -12.4450000  21.3410000 -42.8810000 -14.4780000  19.7220000 -43.4800000
 -15.0380000  20.1700000 -42.8460000 -14.6240000  18.7910000 -43.3130000
 -14.5680000  19.6600000 -43.3780000 -10.2640000  23.1720000 -43.6270000
 -10.8670000  22.5310000 -43.2520000  -9.4750000  23.1030000 -43.0890000
 -10.2400000  23.0820000 -43.5100000  -9.7260000  19.6090000 -37.3490000
  -8.8340000  19.3800000 -37.6130000 -10.2480000  19.4880000 -38.1420000
  -9.6780000  19.5650000 -37.4840000  -7.8410000  22.9980000 -42.3580000
  -7.6630000  22.1160000 -42.0330000  -7.5220000  23.5780000 -41.6670000
  -7.7770000  22.9590000 -42.2280000  -9.9510000  29.2330000 -41.5870000
 -10.0790000  28.3680000 -41.1980000  -9.5080000  29.0580000 -42.4180000
  -9.9110000  29.1000000 -41.6440000 -18.8270000  23.5630000 -43.0300000
 -18.5500000  24.1320000 -42.3120000 -19.4290000  22.9400000 -42.6230000
 -18.8680000  23.5560000 -42.8860000 -17.9540000  29.9000000 -40.4370000
 -18.8750000  29.6800000 -40.5770000 -17.8750000  30.0070000 -39.4900000
 -18.0620000  29.8850000 -40.3340000 -16.1340000  20.5650000 -41.4420000
 -15.9260000  21.4630000 -41.1850000 -16.4890000  20.1640000 -40.6490000
 -16.1520000  20.6280000 -41.3080000  -7.7850000  25.0540000 -40.4430000
  -7.1990000  25.3670000 -39.7540000  -8.5110000  25.6790000 -40.4430000
  -7.8030000  25.1740000 -40.3550000 -18.2650000  23.5670000 -37.3890000
 -18.4630000  23.6480000 -38.3210000 -19.0580000  23.8700000 -36.9470000
 -18.3910000  23.6160000 -37.4520000 -12.1900000  26.1300000 -45.9660000
 -11.3090000  26.4220000 -45.7330000 -12.1040000  25.7960000 -46.8580000
 -12.0660000  26.1250000 -46.0510000  -7.8930000  21.9490000 -47.7820000
  -8.8450000  21.8860000 -47.7110000  -7.5650000  21.2210000 -47.2540000
  -7.9730000  21.8480000 -47.7050000  -2.7640000  29.9570000 -45.6600000
  -2.3240000  30.4640000 -44.9770000  -3.4360000  29.4600000 -45.1940000
  -2.7930000  29.9580000 -45.5130000 -12.2440000  29.4780000 -38.5960000
 -12.4010000  28.5340000 -38.6320000 -12.3340000  29.7700000 -39.5030000
 -12.2760000  29.3940000 -38.7170000  -2.7720000  24.1220000 -46.5910000
  -1.8600000  24.1330000 -46.2980000  -2.7720000  23.5370000 -47.3490000
  -2.6550000  24.0480000 -46.6500000  -4.9270000  28.4590000 -44.7400000
  -5.8020000  28.2020000 -45.0300000  -4.5750000  27.6760000 -44.3150000
  -4.9940000  28.3260000 -44.7230000 -18.0160000  20.3640000 -46.0270000
 -17.1830000  20.8180000 -46.1510000 -18.6040000  20.7630000 -46.6670000
 -17.9850000  20.4730000 -46.1240000 -16.9170000  19.4970000 -39.0150000
 -17.7500000  19.0700000 -38.8140000 -16.9510000  20.3240000 -38.5350000
 -17.0280000  19.5480000 -38.9280000 -10.5820000  24.9590000 -48.2770000
 -10.4960000  24.1750000 -47.7330000 -10.1420000  25.6460000 -47.7770000
 -10.5150000  24.9470000 -48.1440000  -1.9200000  22.5770000 -38.9370000
  -2.8190000  22.2490000 -38.9420000  -1.5950000  22.4000000 -39.8190000
  -1.9940000  22.5120000 -39.0500000   2.2580000  26.3640000 -48.6840000
   2.2720000  26.0510000 -47.7790000   2.2090000  27.3170000 -48.6070000
   2.2540000  26.4460000 -48.5580000 -11.6110000  25.9480000 -42.6810000
 -12.4560000  25.6280000 -42.3640000 -11.1380000  25.1570000 -42.9400000
 -11.6590000  25.8060000 -42.6730000 -14.6840000  31.1340000 -38.3470000
 -13.8730000  30.6460000 -38.4890000 -14.9530000  31.4110000 -39.2230000
 -14.6150000  31.1070000 -38.4780000  -1.8830000  21.8150000 -41.5060000
  -2.7490000  21.6510000 -41.8770000  -1.3010000  21.2230000 -41.9830000
  -1.9190000  21.7180000 -41.6150000 -12.4220000  30.1740000 -41.3190000
 -11.5420000  29.8010000 -41.3710000 -12.9600000  29.5930000 -41.8560000
 -12.3780000  30.0520000 -41.3940000  -5.9780000  28.4310000 -41.6700000
  -6.5350000  28.0370000 -42.3420000  -6.5540000  29.0410000 -41.2100000
  -6.1230000  28.4590000 -41.6970000  -2.0640000  27.6920000 -38.4760000
  -2.8870000  28.0320000 -38.8250000  -2.2080000  27.6360000 -37.5310000
  -2.1870000  27.7280000 -38.4000000 -15.1390000  28.0090000 -44.0440000
 -15.5160000  27.8820000 -43.1740000 -15.7020000  27.4980000 -44.6260000
 -15.2590000  27.9280000 -44.0070000  -6.1320000  29.5190000 -48.5890000
  -5.5870000  30.0200000 -47.9820000  -6.8260000  30.1260000 -48.8460000
  -6.1510000  29.6600000 -48.5440000 -18.1490000  31.0850000 -47.7680000
 -17.7550000  31.0150000 -48.6380000 -17.5370000  30.6300000 -47.1900000
 -18.0200000  31.0180000 -47.8060000 -14.9910000  22.4820000 -37.9530000
 -15.1440000  22.7620000 -38.8560000 -15.2280000  23.2420000 -37.4230000
 -15.0410000  22.6150000 -38.0010000 -13.0590000  26.6030000 -38.8480000
 -13.1730000  26.3190000 -39.7550000 -13.9490000  26.7060000 -38.5150000
 -13.1870000  26.5800000 -38.9220000 -14.0130000  24.9300000 -44.0020000
 -14.6030000  24.1910000 -44.1540000 -13.4010000  24.9020000 -44.7370000
 -14.0100000  24.8320000 -44.1160000 -12.6280000  31.1220000 -45.9700000
 -12.6680000  30.1670000 -46.0070000 -13.0840000  31.3500000 -45.1600000
 -12.6910000  31.0290000 -45.8710000  -4.6630000  27.7750000 -39.2880000
  -5.3540000  27.1350000 -39.1200000  -4.8710000  28.1310000 -40.1510000
  -4.7780000  27.7380000 -39.3770000 -15.4330000  30.8860000 -40.8610000
 -15.4700000  31.2030000 -41.7630000 -16.3040000  30.5270000 -40.6960000
 -15.5490000  30.8800000 -40.9550000  -2.4740000  16.5300000 -46.2920000
  -2.3280000  16.9350000 -45.4370000  -3.4190000  16.5980000 -46.4310000
  -2.5760000  16.5900000 -46.2000000 -12.4980000  28.5830000 -43.8070000
 -12.1730000  27.7800000 -43.4000000 -13.3670000  28.3510000 -44.1330000
 -12.5680000  28.4510000 -43.7970000 -16.8820000  29.5170000 -37.8380000
 -16.0790000  30.0270000 -37.9470000 -17.3320000  29.9350000 -37.1040000
 -16.8380000  29.6360000 -37.7580000 -18.4600000  24.2040000 -45.6830000
 -17.6610000  23.8540000 -46.0780000 -18.4790000  23.8240000 -44.8050000
 -18.3600000  24.1100000 -45.6210000  -9.0650000  27.2610000 -47.9550000
  -9.4720000  28.0210000 -48.3710000  -8.2030000  27.1960000 -48.3650000
  -9.0070000  27.3500000 -48.0610000 -16.3740000  28.9910000 -46.9700000
 -15.4170000  28.9750000 -46.9890000 -16.6190000  28.1770000 -46.5300000
 -16.2840000  28.8850000 -46.9160000  -6.0710000  23.0010000 -44.4310000
  -6.5250000  23.4430000 -45.1490000  -6.6130000  23.1760000 -43.6620000
  -6.1980000  23.0800000 -44.4250000  -0.9060000  27.9290000 -45.4870000
  -1.2950000  27.4550000 -44.7510000  -1.4410000  28.7180000 -45.5730000
  -1.0240000  27.9690000 -45.4040000  -7.5320000  24.4770000 -46.6210000
  -6.9060000  24.9270000 -47.1880000  -7.6740000  23.6300000 -47.0450000
  -7.4700000  24.4260000 -46.7480000  -3.7730000  25.6380000 -43.9730000
  -4.0380000  24.9860000 -43.3230000  -3.5540000  25.1250000 -44.7510000
  -3.7790000  25.4890000 -43.9890000 -11.3710000  22.2910000 -40.5080000
 -10.4490000  22.3670000 -40.2640000 -11.8230000  22.9080000 -39.9330000
 -11.3110000  22.3790000 -40.4040000 -14.3800000  19.3010000 -47.5890000
 -14.2090000  20.2220000 -47.3900000 -13.8140000  18.8170000 -46.9880000
 -14.2860000  19.3570000 -47.4870000 -13.5260000  28.4280000 -47.1960000
 -13.2690000  28.0100000 -48.0180000 -13.4420000  27.7360000 -46.5400000
 -13.4820000  28.2860000 -47.2170000  -2.7200000  19.1670000 -37.7730000
  -3.2610000  18.6520000 -37.1750000  -3.1840000  20.0000000 -37.8600000
  -2.8480000  19.2080000 -37.7070000  -1.3510000  26.7180000 -42.5750000
  -2.2470000  26.3930000 -42.6620000  -1.4510000  27.6130000 -42.2500000
  -1.4790000  26.7910000 -42.5440000  -9.5230000  25.7860000 -45.4210000
  -9.9720000  25.0320000 -45.0390000  -8.8010000  25.4060000 -45.9210000
  -9.4880000  25.6410000 -45.4360000  -7.9880000  29.9100000 -43.7090000
  -8.2640000  30.7340000 -43.3070000  -7.0370000  29.8970000 -43.6000000
  -7.9010000  30.0140000 -43.6440000  -8.8490000  22.8670000 -39.0190000
  -9.3150000  23.4650000 -38.4350000  -8.2540000  23.4310000 -39.5140000
  -8.8330000  23.0150000 -39.0080000 -16.6020000  27.7580000 -41.5720000
 -17.2810000  28.3970000 -41.3520000 -17.0120000  26.9090000 -41.4090000
 -16.7420000  27.7310000 -41.5230000 -18.4540000  20.6670000 -42.9900000
 -17.5920000  20.6280000 -42.5760000 -18.2680000  20.8170000 -43.9170000
 -18.3200000  20.6810000 -43.0560000  -7.5370000  28.2000000 -45.6230000
  -7.8050000  28.8430000 -44.9650000  -8.3360000  28.0180000 -46.1190000
  -7.6740000  28.2590000 -45.6030000 -18.9950000  25.8380000 -39.0030000
 -19.5950000  26.5710000 -38.8620000 -18.4480000  25.8210000 -38.2170000
 -19.0020000  25.9300000 -38.8840000  -7.5600000  26.5340000 -43.0610000
  -7.7230000  26.8430000 -43.9520000  -8.4210000  26.2700000 -42.7380000
  -7.6910000  26.5400000 -43.1330000  -7.3380000  20.7550000 -38.9230000
  -7.3410000  20.4650000 -39.8350000  -8.0100000  21.4360000 -38.8860000
  -7.4250000  20.8050000 -39.0350000  -7.6280000  30.1970000 -40.5250000
  -8.4460000  30.0410000 -40.9960000  -7.5800000  31.1490000 -40.4360000
  -7.7260000  30.2990000 -40.5740000  -3.2780000  24.8930000 -39.2940000
  -2.5650000  24.2610000 -39.1990000  -2.8380000  25.7300000 -39.4400000
  -3.1310000  24.9190000 -39.3010000 -17.2500000  26.6750000 -45.7720000
 -18.0280000  27.1810000 -45.5410000 -17.5120000  25.7620000 -45.6490000
 -17.3820000  26.6230000 -45.7270000 -14.1530000  30.8320000 -48.6660000
 -14.2400000  31.6120000 -48.1170000 -14.0810000  30.1080000 -48.0430000
 -14.1550000  30.8390000 -48.5160000 -14.0510000  25.9730000 -41.4820000
 -14.1420000  25.8530000 -42.4270000 -14.7750000  26.5510000 -41.2440000
 -14.1550000  26.0320000 -41.5730000 -15.4090000  23.1000000 -40.5680000
 -14.6180000  23.1330000 -41.1050000 -15.7690000  23.9860000 -40.6160000
 -15.3540000  23.2170000 -40.6430000  -4.2530000  21.3530000 -39.0990000
  -4.1920000  21.0060000 -39.9890000  -5.1930000  21.4010000 -38.9250000
  -4.3660000  21.3150000 -39.1910000  -4.1360000  20.3260000 -46.7980000
  -3.2650000  19.9330000 -46.7410000  -4.2350000  20.5570000 -47.7210000
  -4.0370000  20.3050000 -46.9090000  -7.2280000  20.5930000 -41.6640000
  -7.4880000  19.8170000 -42.1610000  -6.2720000  20.5980000 -41.7120000
  -7.1390000  20.4940000 -41.7330000 -10.3080000  22.7410000 -46.3830000
 -11.1590000  22.3100000 -46.4700000 -10.2090000  22.8880000 -45.4420000
 -10.4050000  22.7050000 -46.2740000 -11.6770000  19.7620000 -39.2320000
 -12.2300000  20.0730000 -38.5160000 -11.6160000  20.5080000 -39.8290000
 -11.7400000  19.8970000 -39.2170000  -4.3630000  31.5480000 -39.6950000
  -5.0030000  31.0150000 -39.2230000  -4.4010000  31.2250000 -40.5960000
  -4.4500000  31.4380000 -39.7500000 -16.3340000  22.8960000 -46.7690000
 -16.4270000  22.4290000 -47.5990000 -15.5100000  22.5730000 -46.4040000
 -16.2400000  22.7950000 -46.8280000  -1.6960000  29.3850000 -41.8780000
  -2.5870000  29.6010000 -41.6000000  -1.4190000  30.1380000 -42.4000000
  -1.7750000  29.5090000 -41.9090000 -14.1700000  22.1540000 -45.5130000
 -13.7180000  21.5750000 -44.8990000 -13.6070000  22.1690000 -46.2860000
 -14.0400000  22.0820000 -45.5330000 -17.5880000  25.2540000 -41.2440000
 -18.1550000  25.6150000 -41.9260000 -18.0850000  25.3700000 -40.4340000
 -17.7240000  25.3150000 -41.2280000  -4.2690000  30.4240000 -42.0940000
  -4.8790000  29.6880000 -42.0380000  -4.7010000  31.0480000 -42.6770000
  -4.4020000  30.4090000 -42.1610000 -15.1710000  31.0120000 -43.6690000
 -15.6320000  31.3560000 -44.4340000 -15.0900000  30.0740000 -43.8400000
 -15.2200000  30.9360000 -43.7890000 -12.1350000  24.1120000 -38.5410000
 -12.9000000  23.7150000 -38.1230000 -12.3890000  25.0230000 -38.6890000
 -12.2660000  24.1780000 -38.5060000  -4.5540000  21.8960000 -42.1970000
  -4.8410000  22.7220000 -41.8060000  -4.7770000  21.9800000 -43.1240000
  -4.6200000  22.0130000 -42.2650000  -6.1600000  30.0080000 -38.4030000
  -6.9710000  30.0460000 -38.9100000  -5.7960000  29.1450000 -38.5980000
  -6.2170000  29.9030000 -38.4930000 -12.8200000  22.0510000 -47.8450000
 -12.9980000  22.6410000 -48.5770000 -12.3350000  21.3240000 -48.2350000
 -12.7810000  22.0340000 -47.9880000  -2.8460000  29.7380000 -48.4820000
  -1.9930000  29.3970000 -48.7520000  -2.8240000  29.7090000 -47.5260000
  -2.7340000  29.6900000 -48.3950000  -9.9160000  26.6490000 -40.5770000
 -10.6700000  26.3190000 -41.0650000 -10.1170000  26.4510000 -39.6630000
 -10.0380000  26.5810000 -40.5230000  -6.3660000  25.9720000 -38.5080000
  -7.1500000  25.9330000 -37.9600000  -5.7290000  25.4210000 -38.0540000
  -6.3850000  25.8970000 -38.3800000  -0.7700000  19.7640000 -48.9740000
  -1.3660000  19.4140000 -48.3120000  -0.0520000  19.1320000 -49.0090000
  -0.7540000  19.6390000 -48.8940000  -4.9710000  24.4950000 -41.3050000
  -4.2780000  24.6890000 -40.6730000  -5.6070000  25.2010000 -41.1870000
  -4.9640000  24.6100000 -41.2090000 -10.2300000  14.1990000  44.7380000
 -10.4040000  14.3600000  45.6650000 -10.9950000  13.7130000  44.4320000
 -10.3500000  14.1570000  44.8180000 -13.6590000   9.0960000  40.0680000
 -13.8140000   9.5530000  40.8950000 -12.9470000   8.4860000  40.2600000
 -13.5880000   9.0760000  40.1980000  -3.4980000  15.2550000  38.2550000
  -4.3600000  15.5830000  37.9980000  -3.5940000  14.3030000  38.2530000
  -3.6210000  15.1750000  38.2220000 -16.7720000  15.3520000  45.0320000
 -16.7350000  16.2450000  44.6870000 -17.5710000  15.3310000  45.5580000
 -16.8690000  15.4640000  45.0550000 -12.0610000  17.1420000  41.7200000
 -12.8600000  16.6150000  41.7300000 -11.7170000  17.0390000  40.8330000
 -12.1190000  17.0610000  41.6080000  -8.1530000  12.1270000  44.1870000
  -8.5790000  11.5200000  43.5830000  -8.8160000  12.7940000  44.3650000
  -8.2920000  12.1350000  44.1330000  -2.4010000   2.7590000  43.4400000
  -2.3330000   1.8120000  43.3170000  -1.5320000   3.0240000  43.7420000
  -2.2810000   2.6720000  43.4640000  -1.2820000   7.0500000  45.2820000
  -2.0610000   7.1600000  45.8270000  -0.9380000   7.9360000  45.1720000
  -1.3380000   7.1770000  45.3370000 -10.1860000   3.1780000  39.4300000
 -10.4520000   2.7150000  40.2240000 -10.1700000   2.5010000  38.7530000
 -10.2180000   3.0320000  39.4450000  -7.0750000  11.3180000  39.7320000
  -6.3050000  11.3390000  40.2990000  -6.7560000  10.9510000  38.9090000
  -6.9360000  11.2740000  39.6990000  -1.3390000  10.9550000  41.4630000
  -1.7050000  11.5960000  42.0730000  -2.1040000  10.5330000  41.0700000
  -1.4840000  10.9830000  41.4900000  -3.0140000   2.9850000  40.5670000
  -2.8820000   2.8410000  41.5050000  -3.8820000   3.3840000  40.5070000
  -3.1080000   3.0170000  40.6800000  -6.3640000  14.7220000  45.0680000
  -6.1880000  15.5720000  44.6650000  -7.1230000  14.3850000  44.5940000
  -6.4380000  14.7880000  44.9570000  -6.5740000  18.0470000  46.3200000
  -5.9880000  18.7840000  46.1450000  -7.3560000  18.2330000  45.8020000
  -6.5990000  18.1650000  46.2320000 -14.2520000   5.3020000  44.8400000
 -14.6590000   5.3010000  43.9730000 -14.7380000   5.9650000  45.3320000
 -14.3660000   5.3870000  44.7930000 -14.8250000   2.4890000  43.5580000
 -15.5840000   2.4760000  44.1430000 -14.2930000   1.7450000  43.8390000
 -14.8540000   2.3920000  43.6690000 -10.1650000   6.6880000  43.3890000
 -10.9900000   6.6700000  42.9040000 -10.4160000   6.5020000  44.2940000
 -10.3030000   6.6620000  43.4430000 -13.0510000  16.3530000  48.0070000
 -13.3120000  15.9780000  48.8480000 -12.3200000  15.8080000  47.7180000
 -12.9910000  16.2350000  48.0770000 -14.8140000  14.5460000  46.7220000
 -15.5370000  14.8490000  46.1730000 -14.2190000  15.2960000  46.7690000
 -14.8290000  14.6810000  46.6570000 -15.3400000   8.3100000  38.0590000
 -15.9430000   9.0470000  37.9640000 -14.7110000   8.6000000  38.7200000
 -15.3370000   8.4410000  38.1320000 -10.9130000  16.7720000  39.3520000
 -10.4540000  15.9500000  39.5240000 -10.2150000  17.4120000  39.2140000
 -10.7650000  16.7490000  39.3570000 -12.1900000   7.2630000  48.3340000
 -11.3090000   7.5550000  48.5670000 -12.1040000   6.9290000  47.4420000
 -12.0660000   7.2580000  48.2500000  -7.8930000   3.0820000  46.5180000
  -8.8450000   3.0190000  46.5890000  -7.5650000   2.3540000  47.0470000
  -7.9730000   2.9810000  46.5950000  -2.7640000  11.0900000  48.6400000
  -2.3240000  11.5970000  49.3230000  -3.4360000  10.5930000  49.1070000
  -2.7930000  11.0910000  48.7870000  -8.0370000  13.9190000  39.8070000
  -7.7330000  13.0260000  39.9630000  -7.5100000  14.4590000  40.3950000
  -7.9310000  13.8740000  39.9010000  -5.4140000   4.4070000  40.3820000
  -5.3100000   4.7510000  41.2690000  -5.5440000   5.1830000  39.8380000
  -5.4170000   4.5500000  40.4270000  -2.7720000   5.2550000  47.7090000
  -1.8600000   5.2660000  48.0030000  -2.7720000   4.6700000  46.9520000
  -2.6550000   5.1810000  47.6500000 -13.1850000   1.5810000  38.3690000
 -12.8430000   1.5900000  39.2630000 -13.6700000   2.4030000  38.2910000
 -13.2030000   1.6880000  38.4730000 -18.0160000   1.4970000  48.2730000
 -17.1830000   1.9510000  48.1500000 -18.6040000   1.8960000  47.6330000
 -17.9850000   1.6060000  48.1770000 -10.5820000   6.0920000  46.0230000
 -10.4960000   5.3080000  46.5670000 -10.1420000   6.7790000  46.5230000
 -10.5150000   6.0800000  46.1570000  -1.9040000  14.8320000  41.3600000
  -1.7830000  15.7070000  40.9920000  -1.6950000  14.2380000  40.6380000
  -1.8620000  14.8680000  41.2190000  -3.4860000   0.2310000  40.2380000
  -3.3580000   1.1460000  39.9860000  -4.4350000   0.1360000  40.3220000
  -3.5910000   0.3360000  40.2170000 -17.5070000  18.3140000  42.5430000
 -18.2890000  18.1830000  42.0050000 -17.5370000  19.2390000  42.7870000
 -17.6110000  18.4160000  42.5050000 -11.1540000  14.5800000  47.2320000
 -11.6340000  13.7720000  47.4090000 -10.4240000  14.5660000  47.8520000
 -11.1220000  14.4750000  47.3340000  -0.3110000   1.5690000  38.2380000
  -0.4870000   2.4100000  37.8170000  -1.1200000   1.0700000  38.1240000
  -0.4370000   1.6130000  38.1710000   2.2580000   7.4970000  45.6170000
   2.2720000   7.1840000  46.5220000   2.2090000   8.4500000  45.6930000
   2.2540000   7.5790000  45.7430000  -8.3490000   5.4330000  39.5000000
  -8.9750000   4.7090000  39.5230000  -8.1310000   5.5920000  40.4170000
  -8.4010000   5.3610000  39.6190000 -15.7760000  16.8390000  41.0770000
 -16.3580000  17.3370000  41.6500000 -15.5470000  17.4500000  40.3760000
 -15.8210000  16.9810000  41.0600000  -2.1770000   8.3980000  39.5000000
  -2.6340000   8.1570000  40.3070000  -1.2510000   8.2580000  39.6990000
  -2.1170000   8.3490000  39.6300000  -4.0520000   4.1150000  45.0890000
  -3.3560000   3.7290000  44.5550000  -4.6620000   3.3930000  45.2430000
  -4.0410000   3.9730000  45.0400000  -8.1510000   5.5510000  42.1630000
  -8.9740000   5.8340000  42.5590000  -7.4730000   5.9370000  42.7180000
  -8.1690000   5.6360000  42.2850000  -6.1320000  10.6520000  45.7120000
  -5.5870000  11.1530000  46.3180000  -6.8260000  11.2590000  45.4550000
  -6.1510000  10.7930000  45.7570000 -18.1490000  12.2180000  46.5320000
 -17.7550000  12.1480000  45.6620000 -17.5370000  11.7630000  47.1100000
 -18.0200000  12.1510000  46.4940000  -3.4280000   7.8980000  41.9040000
  -3.4710000   8.5170000  42.6350000  -3.7940000   7.0870000  42.2570000
  -3.4800000   7.8740000  42.0430000  -8.6780000   8.7620000  42.3830000
  -9.3500000   8.0810000  42.4130000  -8.5990000   8.9790000  41.4550000
  -8.7540000   8.7030000  42.2680000 -12.6280000  12.2550000  48.3300000
 -12.6680000  11.3000000  48.2930000 -13.0840000  12.4830000  49.1400000
 -12.6910000  12.1620000  48.4300000 -19.0450000   8.0100000  42.1500000
 -18.3800000   8.6100000  42.4880000 -19.8770000   8.4440000  42.3390000
 -19.0660000   8.1420000  42.2180000 -16.7130000  12.4550000  44.3520000
 -16.0340000  12.1750000  44.9650000 -16.6140000  13.4050000  44.3030000
 -16.6130000  12.5410000  44.4250000 -11.2980000  11.1910000  39.4390000
 -11.6810000  10.8820000  38.6170000 -11.0590000  12.1020000  39.2630000
 -11.3160000  11.2680000  39.3120000 -17.0420000   2.6460000  45.1170000
 -17.2800000   1.8270000  44.6830000 -17.8030000   3.2140000  44.9890000
 -17.1700000   2.6140000  45.0440000 -12.4710000   1.4610000  41.1200000
 -12.2260000   0.5860000  41.4220000 -12.6860000   1.9380000  41.9220000
 -12.4670000   1.4100000  41.2610000  -7.2390000   3.2100000  43.6580000
  -7.5330000   3.9250000  43.0940000  -7.5100000   3.4710000  44.5380000
  -7.3110000   3.3350000  43.6980000  -3.2860000  13.7620000  45.3600000
  -4.2010000  13.7720000  45.0770000  -3.1640000  12.8940000  45.7440000
  -3.3880000  13.6520000  45.3730000 -15.6340000   5.7260000  39.1540000
 -16.5580000   5.4830000  39.1920000 -15.6370000   6.6460000  38.8890000
 -15.7510000   5.8130000  39.1250000 -13.6640000  10.0790000  42.4430000
 -12.8410000  10.5650000  42.4050000 -13.6130000   9.5840000  43.2600000
 -13.5520000  10.0780000  42.5430000 -16.9740000  17.9540000  46.5190000
 -17.5150000  18.3770000  47.1870000 -16.0740000  18.1510000  46.7820000
 -16.9280000  18.0340000  46.6380000 -11.3690000  11.7160000  42.4450000
 -11.8920000  12.4190000  42.8320000 -11.3570000  11.9120000  41.5100000
 -11.4340000  11.8310000  42.3750000  -4.3260000   6.5830000  38.6100000
  -3.8480000   6.2300000  37.8610000  -3.8240000   7.3550000  38.8720000
  -4.2010000   6.6370000  38.5470000 -17.7860000  15.7710000  48.7570000
 -17.1310000  16.1320000  48.1600000 -18.4650000  15.4160000  48.1830000
 -17.7900000  15.7720000  48.6070000  -2.4740000  -2.3370000  48.0080000
  -2.3280000  -1.9320000  48.8630000  -3.4190000  -2.2690000  47.8690000
  -2.5760000  -2.2770000  48.1010000  -6.3860000   7.7980000  45.7230000
  -5.8880000   7.5910000  44.9320000  -6.2020000   8.7230000  45.8870000
  -6.2990000   7.8900000  45.6420000 -11.7610000   6.5440000  39.4640000
 -12.2420000   5.7270000  39.3320000 -11.3270000   6.7030000  38.6250000
 -11.7670000   6.4600000  39.3390000 -17.7970000  11.5810000  39.9210000
 -17.0300000  11.2580000  40.3970000 -18.5400000  11.3420000  40.4760000
 -17.7950000  11.5090000  40.0530000  -1.6980000  18.5700000  47.7900000
  -1.8450000  17.6270000  47.8720000  -1.0440000  18.7680000  48.4620000
  -1.6330000  18.4740000  47.8870000  -0.3650000  14.8480000  46.5770000
  -1.2090000  15.2610000  46.7600000  -0.4970000  13.9260000  46.7940000
  -0.4900000  14.7830000  46.6280000  -9.0650000   8.3940000  46.3450000
  -9.4720000   9.1540000  45.9300000  -8.2030000   8.3290000  45.9350000
  -9.0070000   8.4830000  46.2390000  -4.5280000   9.6330000  43.8270000
  -3.8540000  10.0450000  44.3680000  -5.3380000  10.0790000  44.0730000
  -4.5450000   9.7430000  43.9280000 -16.3740000  10.1240000  47.3300000
 -15.4170000  10.1080000  47.3120000 -16.6190000   9.3100000  47.7700000
 -16.2840000  10.0180000  47.3850000  -7.5320000   5.6100000  47.6800000
  -6.9060000   6.0600000  47.1130000  -7.6740000   4.7630000  47.2550000
  -7.4700000   5.5590000  47.5530000  -7.5080000   2.3550000  40.4360000
  -8.2670000   2.6030000  39.9070000  -6.9530000   3.1350000  40.4370000
  -7.5340000   2.4870000  40.3680000 -14.9740000   5.6480000  42.1530000
 -15.0640000   5.3770000  41.2390000 -15.8710000   5.8050000  42.4450000
 -15.1000000   5.6340000  42.0730000  -5.3860000   1.5390000  44.9480000
  -6.0480000   1.9450000  44.3880000  -4.6910000   1.2760000  44.3450000
  -5.3820000   1.5580000  44.8000000 -13.0270000   8.5640000  44.5530000
 -12.8390000   7.8120000  43.9900000 -12.1710000   8.9550000  44.7230000
 -12.8940000   8.5180000  44.5030000 -14.3800000   0.4340000  46.7120000
 -14.2090000   1.3550000  46.9100000 -13.8140000  -0.0500000  47.3120000
 -14.2860000   0.4900000  46.8140000 -10.5770000  13.7710000  38.8360000
  -9.7330000  13.7330000  39.2870000 -10.3540000  13.9760000  37.9280000
 -10.4400000  13.7920000  38.7780000 -13.5260000   9.5610000  47.1050000
 -13.2690000   9.1430000  46.2820000 -13.4420000   8.8690000  47.7600000
 -13.4820000   9.4190000  47.0830000  -6.2140000  14.0160000  47.5640000
  -6.1160000  14.2630000  46.6430000  -7.0680000  14.3660000  47.8150000
  -6.3110000  14.0920000  47.4780000  -8.8240000  18.4300000  44.9030000
  -9.0090000  17.6030000  44.4570000  -9.1360000  19.1030000  44.2970000
  -8.8880000  18.4100000  44.7670000  -7.2360000  17.6650000  37.9920000
  -7.0780000  18.5040000  37.5590000  -6.9740000  17.8120000  38.9010000
  -7.1820000  17.7910000  38.0530000  -5.1260000  16.4420000  48.1020000
  -5.6700000  17.0420000  47.5920000  -5.5170000  15.5810000  47.9570000
  -5.2450000  16.4090000  48.0180000 -11.0340000  18.8100000  47.0760000
 -11.0680000  18.1230000  47.7400000 -10.5580000  18.4150000  46.3450000
 -10.9780000  18.6720000  47.0680000  -9.1550000   9.5380000  39.7630000
  -8.4250000  10.1580000  39.7530000  -9.9370000  10.0890000  39.7320000
  -9.1620000   9.6880000  39.7570000  -9.5230000   6.9190000  48.8800000
  -9.9720000   6.1650000  49.2620000  -8.8010000   6.5390000  48.3800000
  -9.4880000   6.7740000  48.8640000 -12.5000000   3.6560000  42.8630000
 -12.6480000   4.5990000  42.7840000 -13.2920000   3.3240000  43.2870000
 -12.6200000   3.7340000  42.9070000  -8.6320000  18.2660000  48.8400000
  -7.8420000  18.8040000  48.7870000  -9.2320000  18.6580000  48.2070000
  -8.6080000  18.3850000  48.7530000 -13.2440000   4.1450000  39.4570000
 -14.1610000   3.9300000  39.6230000 -12.7690000   3.7570000  40.1920000
 -13.3010000   4.0680000  39.5720000  -5.6420000  16.8960000  43.6930000
  -6.0100000  17.4770000  44.3570000  -4.7510000  17.2190000  43.5580000
  -5.5750000  17.0120000  43.7600000  -7.5370000   9.3330000  48.6780000
  -7.8050000   9.9760000  49.3350000  -8.3360000   9.1510000  48.1820000
  -7.6740000   9.3920000  48.6980000 -17.6400000   5.8720000  43.3400000
 -17.2390000   6.4570000  43.9850000 -18.1030000   6.4570000  42.7420000
 -17.6470000   6.0220000  43.3470000 -15.6790000   0.5510000  39.3850000
 -15.6780000   1.2930000  39.9890000 -15.1750000   0.8550000  38.6320000
 -15.6140000   0.6850000  39.3670000 -14.7630000  12.5870000  39.6690000
 -14.6770000  12.5360000  38.7170000 -15.3160000  13.3550000  39.8180000
 -14.8230000  12.6790000  39.5670000 -17.2500000   7.8080000  48.5280000
 -18.0280000   8.3140000  48.7600000 -17.5120000   6.8950000  48.6520000
 -17.3820000   7.7560000  48.5730000 -14.1530000  11.9650000  45.6350000
 -14.2400000  12.7450000  46.1830000 -14.0810000  11.2410000  46.2570000
 -14.1550000  11.9720000  45.7840000 -18.5220000   3.0490000  40.8390000
 -18.5790000   2.7950000  39.9180000 -19.0700000   3.8310000  40.9070000
 -18.6000000   3.1170000  40.7300000 -12.9690000   0.6220000  44.2700000
 -13.3740000   0.2910000  45.0730000 -12.8620000  -0.1520000  43.7180000
 -13.0070000   0.4810000  44.3030000  -1.8840000  16.0810000  44.0100000
  -1.8140000  15.4520000  44.7270000  -1.8180000  15.5490000  43.2180000
  -1.8670000  15.9330000  44.0000000 -12.4260000   6.6680000  42.1570000
 -12.0530000   6.6030000  41.2780000 -13.3310000   6.3720000  42.0550000
 -12.4940000   6.6210000  42.0320000 -12.7270000  13.8250000  40.5910000
 -13.4590000  13.3360000  40.2140000 -12.0670000  13.8380000  39.8980000
 -12.7370000  13.7640000  40.4550000 -10.2810000   3.5650000  44.5410000
 -11.1330000   3.4270000  44.1300000 -10.2310000   4.5120000  44.6780000
 -10.3830000   3.6690000  44.5070000  -9.2360000   7.2360000  37.7800000
  -9.2550000   7.8860000  38.4820000  -8.8810000   6.4480000  38.1920000
  -9.1930000   7.2190000  37.9220000  -7.2740000  16.1150000  41.6500000
  -7.9590000  16.0430000  42.3150000  -6.4760000  16.2930000  42.1470000
  -7.2600000  16.1280000  41.8000000  -9.5630000   1.7390000  42.6320000
  -9.7880000   2.5240000  43.1320000  -8.6640000   1.8910000  42.3400000
  -9.4760000   1.8590000  42.6590000  -4.1360000   1.4590000  47.5030000
  -3.2650000   1.0660000  47.5590000  -4.2350000   1.6900000  46.5800000
  -4.0370000   1.4380000  47.3920000  -4.1110000   5.3240000  42.7500000
  -4.3320000   5.0740000  43.6480000  -3.2950000   4.8580000  42.5680000
  -4.0350000   5.2320000  42.8430000  -6.2650000  15.0870000  37.8970000
  -6.6650000  15.9550000  37.9470000  -6.7410000  14.5660000  38.5440000
  -6.3770000  15.1320000  37.9860000 -10.3080000   3.8740000  47.9180000
 -11.1590000   3.4430000  47.8300000 -10.2090000   4.0210000  48.8580000
 -10.4050000   3.8380000  48.0270000 -12.8860000  13.4080000  43.7530000
 -13.5220000  12.9530000  44.3050000 -13.3740000  14.1420000  43.3800000
 -13.0290000  13.4440000  43.7770000  -1.4200000   5.3480000  40.5870000
  -2.2430000   4.8610000  40.5380000  -1.6720000   6.2120000  40.9150000
  -1.5570000   5.3960000  40.6220000 -16.3340000   4.0290000  47.5320000
 -16.4270000   3.5620000  46.7020000 -15.5100000   3.7060000  47.8970000
 -16.2400000   3.9280000  47.4730000  -2.6280000  12.5400000  42.8550000
  -2.6060000  12.6560000  43.8050000  -2.4550000  13.4130000  42.5030000
  -2.6030000  12.6670000  42.9320000  -3.2530000  18.4800000  43.1620000
  -3.5170000  18.4450000  42.2430000  -2.6310000  17.7590000  43.2600000
  -3.2070000  18.3830000  43.0570000  -6.0790000  18.4760000  40.6720000
  -6.5950000  17.7910000  41.0980000  -6.5620000  19.2830000  40.8460000
  -6.2070000  18.4910000  40.7500000  -6.3420000  20.0190000  48.9730000
  -5.5670000  19.8630000  48.4340000  -6.3730000  20.9700000  49.0800000
  -6.2470000  20.1210000  48.9180000  -9.7720000  16.4310000  43.2020000
 -10.0100000  15.6180000  43.6470000 -10.5770000  16.7090000  42.7650000
  -9.9050000  16.3630000  43.2030000 -16.9750000   9.7860000  42.8170000
 -16.0190000   9.8180000  42.8430000 -17.2460000  10.7030000  42.8550000
 -16.8870000   9.9070000  42.8250000 -15.6160000   3.0760000  40.7870000
 -15.3090000   3.1410000  41.6920000 -16.5350000   2.8180000  40.8670000
 -15.6940000   3.0510000  40.9130000  -6.3070000   7.3370000  43.1720000
  -5.6870000   7.7810000  42.5930000  -7.1170000   7.8410000  43.0870000
  -6.3310000   7.4590000  43.0870000 -19.6870000  13.3890000  39.1320000
 -19.0600000  12.8660000  39.6320000 -19.1930000  13.6950000  38.3710000
 -19.5430000  13.3610000  39.1000000 -14.0150000  15.4730000  42.4030000
 -14.7150000  15.8710000  41.8860000 -13.5840000  14.8700000  41.7970000
 -14.0490000  15.4470000  42.2600000 -10.5960000   9.8000000  44.5440000
 -10.0820000   9.2000000  44.0050000 -10.8700000  10.4900000  43.9400000
 -10.5660000   9.8110000  44.3980000  -0.9010000  17.6590000  40.8330000
  -0.3140000  17.4820000  40.0980000  -1.4920000  18.3390000  40.5100000
  -0.9020000  17.7230000  40.6970000 -18.1100000  17.1550000  38.5910000
 -17.5520000  16.3960000  38.7620000 -17.5410000  17.9090000  38.7460000
 -17.9650000  17.1540000  38.6320000  -0.5390000   4.3650000  44.5890000
   0.0430000   4.8500000  44.0030000  -1.1050000   5.0350000  44.9730000
  -0.5370000   4.5130000  44.5640000 -12.8200000   3.1840000  46.4550000
 -12.9980000   3.7740000  45.7230000 -12.3350000   2.4570000  46.0650000
 -12.7810000   3.1670000  46.3120000 -19.2150000   9.7740000  45.0320000
 -18.6180000  10.0300000  44.3280000 -18.9120000  10.2690000  45.7940000
 -19.1000000   9.8700000  45.0400000 -16.5350000  13.2810000  48.8370000
 -16.2750000  13.9740000  48.2300000 -17.4060000  13.5400000  49.1370000
 -16.6120000  13.4030000  48.7970000  -2.8460000  10.8710000  45.8180000
  -1.9930000  10.5300000  45.5480000  -2.8240000  10.8420000  46.7750000
  -2.7340000  10.8230000  45.9050000  -0.7700000   0.8970000  45.3270000
  -1.3660000   0.5470000  45.9880000  -0.0520000   0.2650000  45.2910000
  -0.7540000   0.7720000  45.4070000  -4.7000000  11.5420000  41.0330000
  -4.3040000  11.8830000  41.8350000  -4.2090000  11.9610000  40.3270000
  -4.5870000  11.6390000  41.0460000 -14.9950000  16.7550000  32.7140000
 -15.9490000  16.6870000  32.6820000 -14.8060000  17.0620000  33.6000000
 -15.0930000  16.7860000  32.8230000 -10.2300000  14.1990000  25.8770000
 -10.4040000  14.3600000  26.8050000 -10.9950000  13.7130000  25.5710000
 -10.3500000  14.1570000  25.9570000 -14.4780000   0.8550000  31.9600000
 -15.0380000   1.3030000  32.5940000 -14.6240000  -0.0760000  32.1270000
 -14.5680000   0.7930000  32.0620000 -13.6590000   9.0960000  21.2080000
 -13.8140000   9.5530000  22.0350000 -12.9470000   8.4860000  21.4000000
 -13.5880000   9.0760000  21.3380000  -9.7260000   0.7420000  38.0910000
  -8.8340000   0.5130000  37.8270000 -10.2480000   0.6210000  37.2980000
  -9.6780000   0.6980000  37.9570000  -3.4980000  15.2550000  19.3940000
  -4.3600000  15.5830000  19.1380000  -3.5940000  14.3030000  19.3930000
  -3.6210000  15.1750000  19.3610000 -16.7720000  15.3520000  26.1710000
 -16.7350000  16.2450000  25.8270000 -17.5710000  15.3310000  26.6970000
 -16.8690000  15.4640000  26.1940000 -12.0610000  17.1420000  22.8600000
 -12.8600000  16.6150000  22.8700000 -11.7170000  17.0390000  21.9730000
 -12.1190000  17.0610000  22.7480000  -7.8410000   4.1310000  33.0820000
  -7.6630000   3.2490000  33.4070000  -7.5220000   4.7110000  33.7730000
  -7.7770000   4.0920000  33.2120000 -10.1860000   3.1780000  20.5690000
 -10.4520000   2.7150000  21.3640000 -10.1700000   2.5010000  19.8930000
 -10.2180000   3.0320000  20.5850000  -9.9510000  10.3660000  33.8530000
 -10.0790000   9.5010000  34.2420000  -9.5080000  10.1910000  33.0220000
  -9.9110000  10.2330000  33.7960000 -18.8270000   4.6960000  32.4100000
 -18.5500000   5.2650000  33.1280000 -19.4290000   4.0730000  32.8170000
 -18.8680000   4.6890000  32.5540000 -17.9540000  11.0330000  35.0030000
 -18.8750000  10.8130000  34.8630000 -17.8750000  11.1400000  35.9500000
 -18.0620000  11.0180000  35.1060000  -6.3640000  14.7220000  26.2080000
  -6.1880000  15.5720000  25.8050000  -7.1230000  14.3850000  25.7340000
  -6.4380000  14.7880000  26.0960000  -6.5740000  18.0470000  27.4600000
  -5.9880000  18.7840000  27.2850000  -7.3560000  18.2330000  26.9410000
  -6.5990000  18.1650000  27.3710000 -16.1340000   1.6980000  33.9980000
 -15.9260000   2.5960000  34.2550000 -16.4890000   1.2970000  34.7910000
 -16.1520000   1.7610000  34.1320000  -7.7850000   6.1870000  34.9970000
  -7.1990000   6.5000000  35.6860000  -8.5110000   6.8120000  34.9970000
  -7.8030000   6.3070000  35.0850000 -10.1650000   6.6880000  24.5290000
 -10.9900000   6.6700000  24.0440000 -10.4160000   6.5020000  25.4340000
 -10.3030000   6.6620000  24.5830000 -13.0510000  16.3530000  29.1460000
 -13.3120000  15.9780000  29.9870000 -12.3200000  15.8080000  28.8570000
 -12.9910000  16.2350000  29.2160000 -14.8140000  14.5460000  27.8610000
 -15.5370000  14.8490000  27.3130000 -14.2190000  15.2960000  27.9090000
 -14.8290000  14.6810000  27.7970000 -18.2650000   4.7000000  38.0510000
 -18.4630000   4.7810000  37.1190000 -19.0580000   5.0030000  38.4920000
 -18.3910000   4.7490000  37.9880000 -15.3400000   8.3100000  19.1990000
 -15.9430000   9.0470000  19.1030000 -14.7110000   8.6000000  19.8600000
 -15.3370000   8.4410000  19.2710000 -10.9130000  16.7720000  20.4920000
 -10.4540000  15.9500000  20.6640000 -10.2150000  17.4120000  20.3530000
 -10.7650000  16.7490000  20.4960000 -12.1900000   7.2630000  29.4740000
 -11.3090000   7.5550000  29.7060000 -12.1040000   6.9290000  28.5810000
 -12.0660000   7.2580000  29.3890000 -18.2960000  13.7260000  36.8080000
 -19.0580000  14.2940000  36.6910000 -18.0910000  13.4160000  35.9260000
 -18.3680000  13.7590000  36.6800000 -16.2250000  15.0210000  38.1450000
 -15.7420000  15.5820000  37.5380000 -16.6680000  14.3850000  37.5840000
 -16.2200000  15.0120000  37.9960000 -12.5990000  16.7570000  36.9430000
 -12.0250000  16.6700000  37.7040000 -12.6410000  17.6990000  36.7820000
 -12.5310000  16.8660000  37.0190000  -7.8930000   3.0820000  27.6580000
  -8.8450000   3.0190000  27.7290000  -7.5650000   2.3540000  28.1860000
  -7.9730000   2.9810000  27.7350000  -1.5490000  12.8580000  32.0080000
  -2.2630000  13.4630000  31.8090000  -0.8330000  13.4210000  32.3050000
  -1.5480000  13.0070000  32.0210000 -12.2440000  10.6110000  36.8440000
 -12.4010000   9.6670000  36.8080000 -12.3340000  10.9030000  35.9370000
 -12.2760000  10.5270000  36.7230000 -15.2180000  16.5080000  35.8580000
 -15.4700000  17.4120000  36.0490000 -14.3140000  16.4430000  36.1610000
 -15.1340000  16.6160000  35.9210000 -18.0160000   1.4970000  29.4130000
 -17.1830000   1.9510000  29.2890000 -18.6040000   1.8960000  28.7730000
 -17.9850000   1.6060000  29.3160000 -16.9170000   0.6300000  36.4250000
 -17.7500000   0.2030000  36.6260000 -16.9510000   1.4570000  36.9050000
 -17.0280000   0.6810000  36.5120000 -10.5820000   6.0920000  27.1630000
 -10.4960000   5.3080000  27.7060000 -10.1420000   6.7790000  27.6630000
 -10.5150000   6.0800000  27.2960000  -1.9200000   3.7100000  36.5030000
  -2.8190000   3.3820000  36.4980000  -1.5950000   3.5330000  35.6210000
  -1.9940000   3.6450000  36.3900000  -1.9040000  14.8320000  22.4990000
  -1.7830000  15.7070000  22.1310000  -1.6950000  14.2380000  21.7780000
  -1.8620000  14.8680000  22.3590000 -17.5070000  18.3140000  23.6820000
 -18.2890000  18.1830000  23.1440000 -17.5370000  19.2390000  23.9260000
 -17.6110000  18.4160000  23.6440000  -7.4560000  14.1160000  35.6330000
  -6.8740000  13.9520000  36.3740000  -8.0490000  14.8020000  35.9410000
  -7.4580000  14.1830000  35.7670000 -11.1540000  14.5800000  28.3720000
 -11.6340000  13.7720000  28.5490000 -10.4240000  14.5660000  28.9910000
 -11.1220000  14.4750000  28.4740000 -11.6110000   7.0810000  32.7600000
 -12.4560000   6.7610000  33.0760000 -11.1380000   6.2900000  32.5000000
 -11.6590000   6.9390000  32.7670000 -14.6840000  12.2670000  37.0930000
 -13.8730000  11.7790000  36.9510000 -14.9530000  12.5440000  36.2170000
 -14.6150000  12.2400000  36.9620000 -15.7760000  16.8390000  22.2160000
 -16.3580000  17.3370000  22.7890000 -15.5470000  17.4500000  21.5160000
 -15.8210000  16.9810000  22.2000000  -1.8830000   2.9480000  33.9340000
  -2.7490000   2.7840000  33.5630000  -1.3010000   2.3560000  33.4570000
  -1.9190000   2.8510000  33.8250000 -12.4220000  11.3070000  34.1210000
 -11.5420000  10.9340000  34.0690000 -12.9600000  10.7260000  33.5840000
 -12.3780000  11.1850000  34.0460000  -3.4330000  15.0180000  32.4780000
  -3.7840000  14.9150000  33.3630000  -3.2850000  15.9600000  32.3880000
  -3.4590000  15.1250000  32.5800000  -1.2960000  16.7850000  34.3570000
  -1.0980000  16.3900000  35.2070000  -1.9670000  17.4400000  34.5480000
  -1.3570000  16.8180000  34.4900000  -5.9780000   9.5640000  33.7700000
  -6.5350000   9.1700000  33.0980000  -6.5540000  10.1740000  34.2300000
  -6.1230000   9.5920000  33.7430000  -2.0640000   8.8250000  36.9640000
  -2.8870000   9.1650000  36.6150000  -2.2080000   8.7690000  37.9090000
  -2.1870000   8.8610000  37.0410000  -8.1510000   5.5510000  23.3030000
  -8.9740000   5.8340000  23.6990000  -7.4730000   5.9370000  23.8580000
  -8.1690000   5.6360000  23.4250000 -15.1390000   9.1420000  31.3960000
 -15.5160000   9.0150000  32.2660000 -15.7020000   8.6310000  30.8140000
 -15.2590000   9.0610000  31.4330000 -18.1490000  12.2180000  27.6720000
 -17.7550000  12.1480000  26.8020000 -17.5370000  11.7630000  28.2490000
 -18.0200000  12.1510000  27.6340000 -14.9910000   3.6150000  37.4860000
 -15.1440000   3.8950000  36.5840000 -15.2280000   4.3750000  38.0170000
 -15.0410000   3.7480000  37.4390000  -7.4920000  17.7410000  32.6410000
  -8.0410000  17.6720000  31.8610000  -7.1280000  16.8640000  32.7570000
  -7.5150000  17.6200000  32.5560000 -13.0590000   7.7360000  36.5920000
 -13.1730000   7.4520000  35.6850000 -13.9490000   7.8390000  36.9250000
 -13.1870000   7.7130000  36.5180000 -14.0130000   6.0630000  31.4380000
 -14.6030000   5.3240000  31.2860000 -13.4010000   6.0350000  30.7030000
 -14.0100000   5.9650000  31.3240000 -12.6280000  12.2550000  29.4700000
 -12.6680000  11.3000000  29.4330000 -13.0840000  12.4830000  30.2800000
 -12.6910000  12.1620000  29.5690000  -4.6630000   8.9080000  36.1520000
  -5.3540000   8.2680000  36.3200000  -4.8710000   9.2640000  35.2890000
  -4.7780000   8.8710000  36.0630000 -19.0450000   8.0100000  23.2890000
 -18.3800000   8.6100000  23.6270000 -19.8770000   8.4440000  23.4780000
 -19.0660000   8.1420000  23.3570000 -16.7130000  12.4550000  25.4910000
 -16.0340000  12.1750000  26.1050000 -16.6140000  13.4050000  25.4420000
 -16.6130000  12.5410000  25.5640000 -17.0420000   2.6460000  26.2560000
 -17.2800000   1.8270000  25.8220000 -17.8030000   3.2140000  26.1300000
 -17.1700000   2.6140000  26.1840000  -7.2390000   3.2100000  24.7980000
  -7.5330000   3.9250000  24.2340000  -7.5100000   3.4710000  25.6780000
  -7.3110000   3.3350000  24.8380000  -8.7850000  14.8660000  29.8800000
  -8.8490000  14.3460000  30.6820000  -8.2400000  15.6150000  30.1230000
  -8.7240000  14.8950000  30.0140000 -16.9740000  17.9540000  27.6590000
 -17.5150000  18.3770000  28.3260000 -16.0740000  18.1510000  27.9210000
 -16.9280000  18.0340000  27.7780000 -11.3690000  11.7160000  23.5850000
 -11.8920000  12.4190000  23.9710000 -11.3570000  11.9120000  22.6490000
 -11.4340000  11.8310000  23.5150000 -15.4330000  12.0190000  34.5790000
 -15.4700000  12.3360000  33.6780000 -16.3040000  11.6600000  34.7440000
 -15.5490000  12.0130000  34.4860000 -11.5240000  13.7590000  33.1540000
 -12.3070000  14.1650000  32.7850000 -11.8120000  12.8880000  33.4280000
 -11.6610000  13.6990000  33.1420000 -17.7860000  15.7710000  29.8970000
 -17.1310000  16.1320000  29.3000000 -18.4650000  15.4160000  29.3220000
 -17.7900000  15.7720000  29.7470000 -12.4980000   9.7160000  31.6330000
 -12.1730000   8.9130000  32.0400000 -13.3670000   9.4840000  31.3070000
 -12.5680000   9.5840000  31.6430000 -16.8820000  10.6500000  37.6020000
 -16.0790000  11.1600000  37.4920000 -17.3320000  11.0680000  38.3370000
 -16.8380000  10.7690000  37.6820000 -11.7610000   6.5440000  20.6030000
 -12.2420000   5.7270000  20.4720000 -11.3270000   6.7030000  19.7650000
 -11.7670000   6.4600000  20.4790000 -17.7970000  11.5810000  21.0610000
 -17.0300000  11.2580000  21.5360000 -18.5400000  11.3420000  21.6160000
 -17.7950000  11.5090000  21.1930000  -0.3650000  14.8480000  27.7160000
  -1.2090000  15.2610000  27.9000000  -0.4970000  13.9260000  27.9340000
  -0.4900000  14.7830000  27.7670000 -18.4600000   5.3370000  29.7570000
 -17.6610000   4.9870000  29.3620000 -18.4790000   4.9570000  30.6350000
 -18.3600000   5.2430000  29.8190000 -16.3740000  10.1240000  28.4700000
 -15.4170000  10.1080000  28.4510000 -16.6190000   9.3100000  28.9100000
 -16.2840000  10.0180000  28.5240000  -6.0710000   4.1340000  31.0090000
  -6.5250000   4.5760000  30.2910000  -6.6130000   4.3090000  31.7780000
  -6.1980000   4.2130000  31.0150000  -8.9970000  13.4870000  32.3180000
  -8.6040000  14.3080000  32.6140000  -9.9100000  13.5420000  32.6000000
  -9.0630000  13.5990000  32.3920000 -11.3710000   3.4240000  34.9320000
 -10.4490000   3.5000000  35.1760000 -11.8230000   4.0410000  35.5070000
 -11.3110000   3.5120000  35.0360000 -14.3800000   0.4340000  27.8510000
 -14.2090000   1.3550000  28.0500000 -13.8140000  -0.0500000  28.4520000
 -14.2860000   0.4900000  27.9530000 -10.5770000  13.7710000  19.9750000
  -9.7330000  13.7330000  20.4260000 -10.3540000  13.9760000  19.0670000
 -10.4400000  13.7920000  19.9170000 -13.5260000   9.5610000  28.2440000
 -13.2690000   9.1430000  27.4220000 -13.4420000   8.8690000  28.9000000
 -13.4820000   9.4190000  28.2230000  -6.2140000  14.0160000  28.7030000
  -6.1160000  14.2630000  27.7830000  -7.0680000  14.3660000  28.9550000
  -6.3110000  14.0920000  28.6180000  -8.8240000  18.4300000  26.0420000
  -9.0090000  17.6030000  25.5960000  -9.1360000  19.1030000  25.4370000
  -8.8880000  18.4100000  25.9070000  -2.7200000   0.3000000  37.6670000
  -3.2610000  -0.2150000  38.2660000  -3.1840000   1.1330000  37.5800000
  -2.8480000   0.3410000  37.7330000  -7.2360000  17.6650000  19.1320000
  -7.0780000  18.5040000  18.6990000  -6.9740000  17.8120000  20.0410000
  -7.1820000  17.7910000  19.1930000  -5.1260000  16.4420000  29.2420000
  -5.6700000  17.0420000  28.7310000  -5.5170000  15.5810000  29.0960000
  -5.2450000  16.4090000  29.1580000 -11.0340000  18.8100000  28.2150000
 -11.0680000  18.1230000  28.8800000 -10.5580000  18.4150000  27.4850000
 -10.9780000  18.6720000  28.2070000  -9.5230000   6.9190000  30.0190000
  -9.9720000   6.1650000  30.4010000  -8.8010000   6.5390000  29.5190000
  -9.4880000   6.7740000  30.0050000  -7.9880000  11.0430000  31.7310000
  -8.2640000  11.8670000  32.1330000  -7.0370000  11.0300000  31.8400000
  -7.9010000  11.1470000  31.7960000 -12.5000000   3.6560000  24.0020000
 -12.6480000   4.5990000  23.9240000 -13.2920000   3.3240000  24.4260000
 -12.6200000   3.7340000  24.0460000  -8.6320000  18.2660000  29.9800000
  -7.8420000  18.8040000  29.9260000  -9.2320000  18.6580000  29.3460000
  -8.6080000  18.3850000  29.8920000  -8.8490000   4.0000000  36.4210000
  -9.3150000   4.5980000  37.0050000  -8.2540000   4.5640000  35.9260000
  -8.8330000   4.1480000  36.4320000 -13.2440000   4.1450000  20.5970000
 -14.1610000   3.9300000  20.7630000 -12.7690000   3.7570000  21.3320000
 -13.3010000   4.0680000  20.7120000 -16.6020000   8.8910000  33.8680000
 -17.2810000   9.5300000  34.0880000 -17.0120000   8.0420000  34.0320000
 -16.7420000   8.8640000  33.9170000  -5.6420000  16.8960000  24.8320000
  -6.0100000  17.4770000  25.4970000  -4.7510000  17.2190000  24.6980000
  -5.5750000  17.0120000  24.9000000 -18.4540000   1.8000000  32.4500000
 -17.5920000   1.7610000  32.8640000 -18.2680000   1.9500000  31.5230000
 -18.3200000   1.8140000  32.3840000 -18.9950000   6.9710000  36.4370000
 -19.5950000   7.7040000  36.5780000 -18.4480000   6.9540000  37.2230000
 -19.0020000   7.0630000  36.5570000 -17.6400000   5.8720000  24.4800000
 -17.2390000   6.4570000  25.1240000 -18.1030000   6.4570000  23.8810000
 -17.6470000   6.0220000  24.4860000  -7.5600000   7.6670000  32.3800000
  -7.7230000   7.9760000  31.4880000  -8.4210000   7.4030000  32.7020000
  -7.6910000   7.6730000  32.3070000  -7.3380000   1.8880000  36.5170000
  -7.3410000   1.5980000  35.6050000  -8.0100000   2.5690000  36.5540000
  -7.4250000   1.9380000  36.4050000 -14.7630000  12.5870000  20.8090000
 -14.6770000  12.5360000  19.8570000 -15.3160000  13.3550000  20.9580000
 -14.8230000  12.6790000  20.7060000  -7.6280000  11.3300000  34.9160000
  -8.4460000  11.1740000  34.4440000  -7.5800000  12.2820000  35.0050000
  -7.7260000  11.4320000  34.8670000  -3.2780000   6.0260000  36.1460000
  -2.5650000   5.3940000  36.2420000  -2.8380000   6.8630000  36.0000000
  -3.1310000   6.0520000  36.1390000 -17.2500000   7.8080000  29.6680000
 -18.0280000   8.3140000  29.8990000 -17.5120000   6.8950000  29.7910000
 -17.3820000   7.7560000  29.7130000 -14.1530000  11.9650000  26.7740000
 -14.2400000  12.7450000  27.3230000 -14.0810000  11.2410000  27.3970000
 -14.1550000  11.9720000  26.9240000 -18.5220000   3.0490000  21.9790000
 -18.5790000   2.7950000  21.0580000 -19.0700000   3.8310000  22.0470000
 -18.6000000   3.1170000  21.8700000 -14.0510000   7.1060000  33.9580000
 -14.1420000   6.9860000  33.0130000 -14.7750000   7.6840000  34.1960000
 -14.1550000   7.1650000  33.8670000  -1.8840000  16.0810000  25.1500000
  -1.8140000  15.4520000  25.8670000  -1.8180000  15.5490000  24.3570000
  -1.8670000  15.9330000  25.1400000 -12.7270000  13.8250000  21.7300000
 -13.4590000  13.3360000  21.3540000 -12.0670000  13.8380000  21.0380000
 -12.7370000  13.7640000  21.5940000 -10.2810000   3.5650000  25.6810000
 -11.1330000   3.4270000  25.2690000 -10.2310000   4.5120000  25.8170000
 -10.3830000   3.6690000  25.6460000 -17.7810000  17.1700000  32.3010000
 -18.0750000  16.8970000  31.4310000 -18.0900000  18.0720000  32.3850000
 -17.8590000  17.2500000  32.2000000 -15.4090000   4.2330000  34.8720000
 -14.6180000   4.2660000  34.3350000 -15.7690000   5.1190000  34.8240000
 -15.3540000   4.3500000  34.7970000  -4.2530000   2.4860000  36.3410000
  -4.1920000   2.1390000  35.4510000  -5.1930000   2.5340000  36.5160000
  -4.3660000   2.4480000  36.2490000 -13.8660000  14.5340000  31.6990000
 -14.4360000  15.2210000  32.0460000 -14.3180000  13.7180000  31.9130000
 -13.9970000  14.5180000  31.7710000  -7.2740000  16.1150000  22.7900000
  -7.9590000  16.0430000  23.4550000  -6.4760000  16.2930000  23.2870000
  -7.2600000  16.1280000  22.9390000  -9.5630000   1.7390000  23.7720000
  -9.7880000   2.5240000  24.2710000  -8.6640000   1.8910000  23.4800000
  -9.4760000   1.8590000  23.7990000  -4.1360000   1.4590000  28.6420000
  -3.2650000   1.0660000  28.6990000  -4.2350000   1.6900000  27.7190000
  -4.0370000   1.4380000  28.5310000  -6.2650000  15.0870000  19.0370000
  -6.6650000  15.9550000  19.0870000  -6.7410000  14.5660000  19.6840000
  -6.3770000  15.1320000  19.1260000 -11.6770000   0.8950000  36.2080000
 -12.2300000   1.2060000  36.9240000 -11.6160000   1.6410000  35.6110000
 -11.7400000   1.0300000  36.2230000 -12.8860000  13.4080000  24.8930000
 -13.5220000  12.9530000  25.4440000 -13.3740000  14.1420000  24.5200000
 -13.0290000  13.4440000  24.9160000  -7.0080000  15.0790000  33.0980000
  -7.2110000  14.7690000  33.9800000  -6.4940000  14.3710000  32.7080000
  -6.9680000  14.9480000  33.1610000  -4.3630000  12.6810000  35.7450000
  -5.0030000  12.1480000  36.2170000  -4.4010000  12.3580000  34.8440000
  -4.4500000  12.5710000  35.6900000 -10.5960000  15.0490000  35.8800000
 -10.9830000  14.6840000  35.0840000 -11.2440000  15.6780000  36.1950000
 -10.7290000  15.0820000  35.8190000 -18.2360000  14.4030000  33.2490000
 -18.6180000  15.2460000  33.4930000 -17.4120000  14.6290000  32.8180000
 -18.1800000  14.5400000  33.2250000 -16.3340000   4.0290000  28.6710000
 -16.4270000   3.5620000  27.8410000 -15.5100000   3.7060000  29.0360000
 -16.2400000   3.9280000  28.6120000  -3.2530000  18.4800000  24.3010000
  -3.5170000  18.4450000  23.3820000  -2.6310000  17.7590000  24.4000000
  -3.2070000  18.3830000  24.1960000  -6.0790000  18.4760000  21.8120000
  -6.5950000  17.7910000  22.2380000  -6.5620000  19.2830000  21.9860000
  -6.2070000  18.4910000  21.8890000 -17.5880000   6.3870000  34.1960000
 -18.1550000   6.7480000  33.5140000 -18.0850000   6.5030000  35.0070000
 -17.7240000   6.4480000  34.2120000  -6.3420000  20.0190000  30.1130000
  -5.5670000  19.8630000  29.5740000  -6.3730000  20.9700000  30.2190000
  -6.2470000  20.1210000  30.0580000  -9.7720000  16.4310000  24.3420000
 -10.0100000  15.6180000  24.7860000 -10.5770000  16.7090000  23.9050000
  -9.9050000  16.3630000  24.3430000  -4.5790000  15.8510000  35.6490000
  -4.3090000  14.9470000  35.8090000  -5.5310000  15.8380000  35.7500000
  -4.6660000  15.7340000  35.6830000  -4.2690000  11.5570000  33.3460000
  -4.8790000  10.8210000  33.4020000  -4.7010000  12.1810000  32.7630000
  -4.4020000  11.5420000  33.2790000 -15.1710000  12.1450000  31.7710000
 -15.6320000  12.4890000  31.0060000 -15.0900000  11.2070000  31.5990000
 -15.2200000  12.0690000  31.6510000 -16.9750000   9.7860000  23.9560000
 -16.0190000   9.8180000  23.9830000 -17.2460000  10.7030000  23.9940000
 -16.8870000   9.9070000  23.9640000 -12.1350000   5.2450000  36.8990000
 -12.9000000   4.8480000  37.3170000 -12.3890000   6.1560000  36.7510000
 -12.2660000   5.3110000  36.9340000 -19.6870000  13.3890000  20.2720000
 -19.0600000  12.8660000  20.7710000 -19.1930000  13.6950000  19.5110000
 -19.5430000  13.3610000  20.2390000 -14.0150000  15.4730000  23.5430000
 -14.7150000  15.8710000  23.0260000 -13.5840000  14.8700000  22.9370000
 -14.0490000  15.4470000  23.3990000  -5.4140000  13.4160000  31.3650000
  -5.5870000  13.3390000  30.4270000  -4.6310000  13.9630000  31.4200000
  -5.3360000  13.4760000  31.2520000 -10.5960000   9.8000000  25.6840000
 -10.0820000   9.2000000  25.1440000 -10.8700000  10.4900000  25.0800000
 -10.5660000   9.8110000  25.5380000  -3.5680000  18.3670000  34.9750000
  -3.1590000  18.5390000  35.8230000  -3.8370000  17.4500000  35.0200000
  -3.5500000  18.2720000  35.0890000  -0.9010000  17.6590000  21.9730000
  -0.3140000  17.4820000  21.2380000  -1.4920000  18.3390000  21.6490000
  -0.9020000  17.7230000  21.8370000 -18.1100000  17.1550000  19.7300000
 -17.5520000  16.3960000  19.9020000 -17.5410000  17.9090000  19.8860000
 -17.9650000  17.1540000  19.7720000  -1.0610000  16.0140000  36.9680000
  -1.8330000  16.0450000  37.5320000  -0.4440000  16.6240000  37.3740000
  -1.0810000  16.0960000  37.0930000  -6.1600000  11.1410000  37.0370000
  -6.9710000  11.1790000  36.5300000  -5.7960000  10.2780000  36.8420000
  -6.2170000  11.0360000  36.9470000 -19.2150000   9.7740000  26.1720000
 -18.6180000  10.0300000  25.4680000 -18.9120000  10.2690000  26.9340000
 -19.1000000   9.8700000  26.1790000 -16.5350000  13.2810000  29.9770000
 -16.2750000  13.9740000  29.3690000 -17.4060000  13.5400000  30.2760000
 -16.6120000  13.4030000  29.9370000  -9.9160000   7.7820000  34.8630000
 -10.6700000   7.4520000  34.3740000 -10.1170000   7.5840000  35.7770000
 -10.0380000   7.7140000  34.9170000  -6.3660000   7.1050000  36.9320000
  -7.1500000   7.0660000  37.4800000  -5.7290000   6.5540000  37.3860000
  -6.3850000   7.0300000  37.0600000  -4.9710000   5.6280000  34.1350000
  -4.2780000   5.8220000  34.7670000  -5.6070000   6.3340000  34.2530000
  -4.9640000   5.7430000  34.2310000  -4.5060000  17.8980000  31.6100000
  -4.9790000  18.7310000  31.6030000  -5.0370000  17.3170000  31.0660000
  -4.6350000  17.9300000  31.5400000 -14.9950000  16.7550000  13.8540000
 -15.9490000  16.6870000  13.8220000 -14.8060000  17.0620000  14.7400000
 -15.0930000  16.7860000  13.9630000 -13.6590000   9.0960000   2.3480000
 -13.8140000   9.5530000   3.1750000 -12.9470000   8.4860000   2.5400000
 -13.5880000   9.0760000   2.4780000 -10.2640000   4.3050000  12.9530000
 -10.8670000   3.6640000  13.3280000  -9.4750000   4.2360000  13.4910000
 -10.2400000   4.2150000  13.0700000  -3.4980000  15.2550000   0.5340000
  -4.3600000  15.5830000   0.2780000  -3.5940000  14.3030000   0.5330000
  -3.6210000  15.1750000   0.5010000 -16.7720000  15.3520000   7.3110000
 -16.7350000  16.2450000   6.9670000 -17.5710000  15.3310000   7.8370000
 -16.8690000  15.4640000   7.3340000 -12.0610000  17.1420000   4.0000000
 -12.8600000  16.6150000   4.0100000 -11.7170000  17.0390000   3.1130000
 -12.1190000  17.0610000   3.8880000  -7.8410000   4.1310000  14.2210000
  -7.6630000   3.2490000  14.5470000  -7.5220000   4.7110000  14.9130000
  -7.7770000   4.0920000  14.3520000  -9.9510000  10.3660000  14.9930000
 -10.0790000   9.5010000  15.3820000  -9.5080000  10.1910000  14.1620000
  -9.9110000  10.2330000  14.9360000  -3.3570000  12.5550000   0.7590000
  -3.3150000  12.4210000  -0.1880000  -2.4710000  12.8220000   1.0020000
  -3.2380000  12.5720000   0.6690000 -17.9540000  11.0330000  16.1430000
 -18.8750000  10.8130000  16.0030000 -17.8750000  11.1400000  17.0900000
 -18.0620000  11.0180000  16.2460000  -6.3640000  14.7220000   7.3480000
  -6.1880000  15.5720000   6.9450000  -7.1230000  14.3850000   6.8740000
  -6.4380000  14.7880000   7.2360000  -6.5740000  18.0470000   8.6000000
  -5.9880000  18.7840000   8.4250000  -7.3560000  18.2330000   8.0810000
  -6.5990000  18.1650000   8.5110000  -7.7850000   6.1870000  16.1370000
  -7.1990000   6.5000000  16.8260000  -8.5110000   6.8120000  16.1370000
  -7.8030000   6.3070000  16.2250000 -13.0510000  16.3530000  10.2860000
 -13.3120000  15.9780000  11.1270000 -12.3200000  15.8080000   9.9970000
 -12.9910000  16.2350000  10.3560000 -14.8140000  14.5460000   9.0010000
 -15.5370000  14.8490000   8.4530000 -14.2190000  15.2960000   9.0490000
 -14.8290000  14.6810000   8.9370000 -10.9130000  16.7720000   1.6320000
 -10.4540000  15.9500000   1.8040000 -10.2150000  17.4120000   1.4930000
 -10.7650000  16.7490000   1.6360000 -18.2960000  13.7260000  17.9480000
 -19.0580000  14.2940000  17.8310000 -18.0910000  13.4160000  17.0660000
 -18.3680000  13.7590000  17.8200000 -16.2250000  15.0210000  19.2850000
 -15.7420000  15.5820000  18.6780000 -16.6680000  14.3850000  18.7240000
 -16.2200000  15.0120000  19.1360000 -12.2440000  10.6110000  17.9840000
 -12.4010000   9.6670000  17.9480000 -12.3340000  10.9030000  17.0770000
 -12.2760000  10.5270000  17.8630000  -8.0370000  13.9190000   2.0860000
  -7.7330000  13.0260000   2.2420000  -7.5100000  14.4590000   2.6750000
  -7.9310000  13.8740000   2.1810000  -2.7720000   5.2550000   9.9890000
  -1.8600000   5.2660000  10.2820000  -2.7720000   4.6700000   9.2310000
  -2.6550000   5.1810000   9.9300000 -15.2180000  16.5080000  16.9980000
 -15.4700000  17.4120000  17.1890000 -14.3140000  16.4430000  17.3010000
 -15.1340000  16.6160000  17.0610000 -17.5070000  18.3140000   4.8220000
 -18.2890000  18.1830000   4.2840000 -17.5370000  19.2390000   5.0660000
 -17.6110000  18.4160000   4.7840000  -7.4560000  14.1160000  16.7730000
  -6.8740000  13.9520000  17.5140000  -8.0490000  14.8020000  17.0810000
  -7.4580000  14.1830000  16.9070000 -11.1540000  14.5800000   9.5120000
 -11.6340000  13.7720000   9.6890000 -10.4240000  14.5660000  10.1310000
 -11.1220000  14.4750000   9.6140000   2.2580000   7.4970000   7.8960000
   2.2720000   7.1840000   8.8010000   2.2090000   8.4500000   7.9730000
   2.2540000   7.5790000   8.0220000 -14.6840000  12.2670000  18.2330000
 -13.8730000  11.7790000  18.0910000 -14.9530000  12.5440000  17.3570000
 -14.6150000  12.2400000  18.1020000 -15.7760000  16.8390000   3.3560000
 -16.3580000  17.3370000   3.9290000 -15.5470000  17.4500000   2.6560000
 -15.8210000  16.9810000   3.3400000 -12.4220000  11.3070000  15.2610000
 -11.5420000  10.9340000  15.2090000 -12.9600000  10.7260000  14.7240000
 -12.3780000  11.1850000  15.1860000  -1.2960000  16.7850000  15.4970000
  -1.0980000  16.3900000  16.3470000  -1.9670000  17.4400000  15.6880000
  -1.3570000  16.8180000  15.6300000  -4.0520000   4.1150000   7.3680000
  -3.3560000   3.7290000   6.8350000  -4.6620000   3.3930000   7.5230000
  -4.0410000   3.9730000   7.3190000 -18.1490000  12.2180000   8.8120000
 -17.7550000  12.1480000   7.9420000 -17.5370000  11.7630000   9.3890000
 -18.0200000  12.1510000   8.7740000 -13.0590000   7.7360000  17.7320000
 -13.1730000   7.4520000  16.8250000 -13.9490000   7.8390000  18.0650000
 -13.1870000   7.7130000  17.6590000 -19.0450000   8.0100000   4.4290000
 -18.3800000   8.6100000   4.7670000 -19.8770000   8.4440000   4.6180000
 -19.0660000   8.1420000   4.4970000 -16.7130000  12.4550000   6.6310000
 -16.0340000  12.1750000   7.2450000 -16.6140000  13.4050000   6.5820000
 -16.6130000  12.5410000   6.7040000  -8.7850000  14.8660000  11.0200000
  -8.8490000  14.3460000  11.8220000  -8.2400000  15.6150000  11.2630000
  -8.7240000  14.8950000  11.1540000  -3.2860000  13.7620000   7.6390000
  -4.2010000  13.7720000   7.3560000  -3.1640000  12.8940000   8.0240000
  -3.3880000  13.6520000   7.6520000 -16.9740000  17.9540000   8.7990000
 -17.5150000  18.3770000   9.4660000 -16.0740000  18.1510000   9.0610000
 -16.9280000  18.0340000   8.9180000 -15.4330000  12.0190000  15.7190000
 -15.4700000  12.3360000  14.8170000 -16.3040000  11.6600000  15.8840000
 -15.5490000  12.0130000  15.6250000 -11.5240000  13.7590000  14.2940000
 -12.3070000  14.1650000  13.9250000 -11.8120000  12.8880000  14.5670000
 -11.6610000  13.6990000  14.2820000  -2.4740000  -2.3370000  10.2880000
  -2.3280000  -1.9320000  11.1430000  -3.4190000  -2.2690000  10.1490000
  -2.5760000  -2.2770000  10.3800000 -16.8820000  10.6500000  18.7420000
 -16.0790000  11.1600000  18.6320000 -17.3320000  11.0680000  19.4760000
 -16.8380000  10.7690000  18.8220000 -17.7970000  11.5810000   2.2010000
 -17.0300000  11.2580000   2.6760000 -18.5400000  11.3420000   2.7560000
 -17.7950000  11.5090000   2.3330000  -1.6980000  18.5700000  10.0700000
  -1.8450000  17.6270000  10.1510000  -1.0440000  18.7680000  10.7410000
  -1.6330000  18.4740000  10.1660000  -0.3650000  14.8480000   8.8560000
  -1.2090000  15.2610000   9.0400000  -0.4970000  13.9260000   9.0740000
  -0.4900000  14.7830000   8.9070000  -6.0710000   4.1340000  12.1490000
  -6.5250000   4.5760000  11.4310000  -6.6130000   4.3090000  12.9180000
  -6.1980000   4.2130000  12.1550000  -7.5320000   5.6100000   9.9590000
  -6.9060000   6.0600000   9.3920000  -7.6740000   4.7630000   9.5350000
  -7.4700000   5.5590000   9.8320000  -8.9970000  13.4870000  13.4580000
  -8.6040000  14.3080000  13.7540000  -9.9100000  13.5420000  13.7400000
  -9.0630000  13.5990000  13.5320000  -5.3860000   1.5390000   7.2280000
  -6.0480000   1.9450000   6.6680000  -4.6910000   1.2760000   6.6250000
  -5.3820000   1.5580000   7.0790000 -10.5770000  13.7710000   1.1150000
  -9.7330000  13.7330000   1.5660000 -10.3540000  13.9760000   0.2070000
 -10.4400000  13.7920000   1.0570000  -6.2140000  14.0160000   9.8430000
  -6.1160000  14.2630000   8.9230000  -7.0680000  14.3660000  10.0950000
  -6.3110000  14.0920000   9.7580000  -8.8240000  18.4300000   7.1820000
  -9.0090000  17.6030000   6.7360000  -9.1360000  19.1030000   6.5770000
  -8.8880000  18.4100000   7.0470000  -7.2360000  17.6650000   0.2720000
  -7.0780000  18.5040000  -0.1610000  -6.9740000  17.8120000   1.1810000
  -7.1820000  17.7910000   0.3330000  -5.1260000  16.4420000  10.3820000
  -5.6700000  17.0420000   9.8710000  -5.5170000  15.5810000  10.2360000
  -5.2450000  16.4090000  10.2980000 -11.0340000  18.8100000   9.3550000
 -11.0680000  18.1230000  10.0200000 -10.5580000  18.4150000   8.6250000
 -10.9780000  18.6720000   9.3470000  -7.9880000  11.0430000  12.8710000
  -8.2640000  11.8670000  13.2730000  -7.0370000  11.0300000  12.9800000
  -7.9010000  11.1470000  12.9360000  -8.6320000  18.2660000  11.1200000
  -7.8420000  18.8040000  11.0660000  -9.2320000  18.6580000  10.4860000
  -8.6080000  18.3850000  11.0320000  -5.6420000  16.8960000   5.9720000
  -6.0100000  17.4770000   6.6370000  -4.7510000  17.2190000   5.8380000
  -5.5750000  17.0120000   6.0400000  -7.5370000   9.3330000  10.9570000
  -7.8050000   9.9760000  11.6140000  -8.3360000   9.1510000  10.4610000
  -7.6740000   9.3920000  10.9770000  -7.6280000  11.3300000  16.0550000
  -8.4460000  11.1740000  15.5840000  -7.5800000  12.2820000  16.1440000
  -7.7260000  11.4320000  16.0060000  -1.8050000  17.3030000  12.8550000
  -1.5230000  17.2070000  13.7650000  -2.5860000  17.8540000  12.9040000
  -1.8690000  17.3610000  12.9780000 -13.8660000  14.5340000  12.8390000
 -14.4360000  15.2210000  13.1860000 -14.3180000  13.7180000  13.0530000
 -13.9970000  14.5180000  12.9110000  -7.2740000  16.1150000   3.9300000
  -7.9590000  16.0430000   4.5950000  -6.4760000  16.2930000   4.4270000
  -7.2600000  16.1280000   4.0790000  -4.1360000   1.4590000   9.7820000
  -3.2650000   1.0660000   9.8390000  -4.2350000   1.6900000   8.8590000
  -4.0370000   1.4380000   9.6710000  -6.2650000  15.0870000   0.1770000
  -6.6650000  15.9550000   0.2270000  -6.7410000  14.5660000   0.8240000
  -6.3770000  15.1320000   0.2660000 -18.2360000  14.4030000  14.3890000
 -18.6180000  15.2460000  14.6330000 -17.4120000  14.6290000  13.9580000
 -18.1800000  14.5400000  14.3650000  -2.6280000  12.5400000   5.1340000
  -2.6060000  12.6560000   6.0840000  -2.4550000  13.4130000   4.7830000
  -2.6030000  12.6670000   5.2110000  -6.0790000  18.4760000   2.9520000
  -6.5950000  17.7910000   3.3780000  -6.5620000  19.2830000   3.1260000
  -6.2070000  18.4910000   3.0290000  -6.3420000  20.0190000  11.2530000
  -5.5670000  19.8630000  10.7140000  -6.3730000  20.9700000  11.3590000
  -6.2470000  20.1210000  11.1980000  -9.7720000  16.4310000   5.4820000
 -10.0100000  15.6180000   5.9260000 -10.5770000  16.7090000   5.0450000
  -9.9050000  16.3630000   5.4830000  -4.5790000  15.8510000  16.7890000
  -4.3090000  14.9470000  16.9490000  -5.5310000  15.8380000  16.8900000
  -4.6660000  15.7340000  16.8230000 -12.1350000   5.2450000  18.0400000
 -12.9000000   4.8480000  18.4570000 -12.3890000   6.1560000  17.8910000
 -12.2660000   5.3110000  18.0740000 -19.6870000  13.3890000   1.4120000
 -19.0600000  12.8660000   1.9110000 -19.1930000  13.6950000   0.6510000
 -19.5430000  13.3610000   1.3790000 -14.0150000  15.4730000   4.6830000
 -14.7150000  15.8710000   4.1660000 -13.5840000  14.8700000   4.0770000
 -14.0490000  15.4470000   4.5390000  -3.5680000  18.3670000  16.1150000
  -3.1590000  18.5390000  16.9630000  -3.8370000  17.4500000  16.1600000
  -3.5500000  18.2720000  16.2290000 -18.1100000  17.1550000   0.8700000
 -17.5520000  16.3960000   1.0420000 -17.5410000  17.9090000   1.0260000
 -17.9650000  17.1540000   0.9120000  -1.0610000  16.0140000  18.1080000
  -1.8330000  16.0450000  18.6720000  -0.4440000  16.6240000  18.5140000
  -1.0810000  16.0960000  18.2330000  -0.5390000   4.3650000   6.8690000
   0.0430000   4.8500000   6.2830000  -1.1050000   5.0350000   7.2520000
  -0.5370000   4.5130000   6.8430000 -19.2150000   9.7740000   7.3120000
 -18.6180000  10.0300000   6.6080000 -18.9120000  10.2690000   8.0740000
 -19.1000000   9.8700000   7.3190000  -9.9160000   7.7820000  16.0030000
 -10.6700000   7.4520000  15.5140000 -10.1170000   7.5840000  16.9170000
 -10.0380000   7.7140000  16.0570000  -0.7700000   0.8970000   7.6060000
  -1.3660000   0.5470000   8.2680000  -0.0520000   0.2650000   7.5710000
  -0.7540000   0.7720000   7.6860000  -4.5060000  17.8980000  12.7500000
  -4.9790000  18.7310000  12.7430000  -5.0370000  17.3170000  12.2060000
  -4.6350000  17.9300000  12.6800000 -14.9950000  16.7550000  -5.0060000
 -15.9490000  16.6870000  -5.0380000 -14.8060000  17.0620000  -4.1200000
 -15.0930000  16.7860000  -4.8970000 -10.2300000  14.1990000 -11.8430000
 -10.4040000  14.3600000 -10.9150000 -10.9950000  13.7130000 -12.1490000
 -10.3500000  14.1570000 -11.7630000 -14.4780000   0.8550000  -5.7600000
 -15.0380000   1.3030000  -5.1260000 -14.6240000  -0.0760000  -5.5930000
 -14.5680000   0.7930000  -5.6580000 -13.6590000   9.0960000 -16.5120000
 -13.8140000   9.5530000 -15.6850000 -12.9470000   8.4860000 -16.3200000
 -13.5880000   9.0760000 -16.3820000  -3.4980000  15.2550000 -18.3260000
  -4.3600000  15.5830000 -18.5820000  -3.5940000  14.3030000 -18.3270000
  -3.6210000  15.1750000 -18.3590000 -16.7720000  15.3520000 -11.5490000
 -16.7350000  16.2450000 -11.8930000 -17.5710000  15.3310000 -11.0230000
 -16.8690000  15.4640000 -11.5260000  -8.1530000  12.1270000 -12.3930000
  -8.5790000  11.5200000 -12.9970000  -8.8160000  12.7940000 -12.2150000
  -8.2920000  12.1350000 -12.4470000 -18.8270000   4.6960000  -5.3100000
 -18.5500000   5.2650000  -4.5920000 -19.4290000   4.0730000  -4.9030000
 -18.8680000   4.6890000  -5.1660000  -3.3570000  12.5550000 -18.1010000
  -3.3150000  12.4210000 -19.0480000  -2.4710000  12.8220000 -17.8580000
  -3.2380000  12.5720000 -18.1910000 -17.9540000  11.0330000  -2.7170000
 -18.8750000  10.8130000  -2.8570000 -17.8750000  11.1400000  -1.7700000
 -18.0620000  11.0180000  -2.6140000  -6.5740000  18.0470000 -10.2600000
  -5.9880000  18.7840000 -10.4350000  -7.3560000  18.2330000 -10.7790000
  -6.5990000  18.1650000 -10.3490000 -13.0510000  16.3530000  -8.5740000
 -13.3120000  15.9780000  -7.7330000 -12.3200000  15.8080000  -8.8630000
 -12.9910000  16.2350000  -8.5040000 -14.8140000  14.5460000  -9.8590000
 -15.5370000  14.8490000 -10.4070000 -14.2190000  15.2960000  -9.8110000
 -14.8290000  14.6810000  -9.9230000 -15.3400000   8.3100000 -18.5210000
 -15.9430000   9.0470000 -18.6170000 -14.7110000   8.6000000 -17.8600000
 -15.3370000   8.4410000 -18.4490000 -18.2960000  13.7260000  -0.9120000
 -19.0580000  14.2940000  -1.0290000 -18.0910000  13.4160000  -1.7940000
 -18.3680000  13.7590000  -1.0400000 -12.5990000  16.7570000  -0.7770000
 -12.0250000  16.6700000  -0.0160000 -12.6410000  17.6990000  -0.9390000
 -12.5310000  16.8660000  -0.7010000  -1.5490000  12.8580000  -5.7120000
  -2.2630000  13.4630000  -5.9110000  -0.8330000  13.4210000  -5.4150000
  -1.5480000  13.0070000  -5.6990000 -15.2180000  16.5080000  -1.8620000
 -15.4700000  17.4120000  -1.6710000 -14.3140000  16.4430000  -1.5590000
 -15.1340000  16.6160000  -1.7990000 -18.0160000   1.4970000  -8.3070000
 -17.1830000   1.9510000  -8.4310000 -18.6040000   1.8960000  -8.9470000
 -17.9850000   1.6060000  -8.4040000  -1.9040000  14.8320000 -15.2210000
  -1.7830000  15.7070000 -15.5890000  -1.6950000  14.2380000 -15.9420000
  -1.8620000  14.8680000 -15.3610000 -17.5070000  18.3140000 -14.0380000
 -18.2890000  18.1830000 -14.5760000 -17.5370000  19.2390000 -13.7940000
 -17.6110000  18.4160000 -14.0760000  -7.4560000  14.1160000  -2.0870000
  -6.8740000  13.9520000  -1.3460000  -8.0490000  14.8020000  -1.7790000
  -7.4580000  14.1830000  -1.9530000 -11.1540000  14.5800000  -9.3480000
 -11.6340000  13.7720000  -9.1710000 -10.4240000  14.5660000  -8.7290000
 -11.1220000  14.4750000  -9.2460000  -3.4330000  15.0180000  -5.2420000
  -3.7840000  14.9150000  -4.3570000  -3.2850000  15.9600000  -5.3320000
  -3.4590000  15.1250000  -5.1400000  -1.2960000  16.7850000  -3.3630000
  -1.0980000  16.3900000  -2.5130000  -1.9670000  17.4400000  -3.1720000
  -1.3570000  16.8180000  -3.2300000 -18.1490000  12.2180000 -10.0480000
 -17.7550000  12.1480000 -10.9180000 -17.5370000  11.7630000  -9.4710000
 -18.0200000  12.1510000 -10.0860000  -7.4920000  17.7410000  -5.0790000
  -8.0410000  17.6720000  -5.8590000  -7.1280000  16.8640000  -4.9630000
  -7.5150000  17.6200000  -5.1640000 -19.0450000   8.0100000 -14.4310000
 -18.3800000   8.6100000 -14.0930000 -19.8770000   8.4440000 -14.2420000
 -19.0660000   8.1420000 -14.3630000 -11.2980000  11.1910000 -17.1420000
 -11.6810000  10.8820000 -17.9630000 -11.0590000  12.1020000 -17.3170000
 -11.3160000  11.2680000 -17.2690000 -17.0420000   2.6460000 -11.4640000
 -17.2800000   1.8270000 -11.8980000 -17.8030000   3.2140000 -11.5910000
 -17.1700000   2.6140000 -11.5360000  -3.2860000  13.7620000 -11.2210000
  -4.2010000  13.7720000 -11.5040000  -3.1640000  12.8940000 -10.8360000
  -3.3880000  13.6520000 -11.2080000 -13.6640000  10.0790000 -14.1370000
 -12.8410000  10.5650000 -14.1750000 -13.6130000   9.5840000 -13.3200000
 -13.5520000  10.0780000 -14.0380000 -16.9740000  17.9540000 -10.0610000
 -17.5150000  18.3770000  -9.3940000 -16.0740000  18.1510000  -9.7990000
 -16.9280000  18.0340000  -9.9420000 -11.3690000  11.7160000 -14.1350000
 -11.8920000  12.4190000 -13.7490000 -11.3570000  11.9120000 -15.0710000
 -11.4340000  11.8310000 -14.2050000 -15.4330000  12.0190000  -3.1410000
 -15.4700000  12.3360000  -4.0430000 -16.3040000  11.6600000  -2.9760000
 -15.5490000  12.0130000  -3.2350000 -11.5240000  13.7590000  -4.5660000
 -12.3070000  14.1650000  -4.9350000 -11.8120000  12.8880000  -4.2930000
 -11.6610000  13.6990000  -4.5780000 -17.7860000  15.7710000  -7.8230000
 -17.1310000  16.1320000  -8.4200000 -18.4650000  15.4160000  -8.3980000
 -17.7900000  15.7720000  -7.9730000 -16.8820000  10.6500000  -0.1180000
 -16.0790000  11.1600000  -0.2280000 -17.3320000  11.0680000   0.6160000
 -16.8380000  10.7690000  -0.0380000 -17.7970000  11.5810000 -16.6590000
 -17.0300000  11.2580000 -16.1840000 -18.5400000  11.3420000 -16.1040000
 -17.7950000  11.5090000 -16.5270000  -1.6980000  18.5700000  -8.7900000
  -1.8450000  17.6270000  -8.7090000  -1.0440000  18.7680000  -8.1190000
  -1.6330000  18.4740000  -8.6940000  -0.3650000  14.8480000 -10.0040000
  -1.2090000  15.2610000  -9.8200000  -0.4970000  13.9260000  -9.7860000
  -0.4900000  14.7830000  -9.9530000 -16.3740000  10.1240000  -9.2500000
 -15.4170000  10.1080000  -9.2690000 -16.6190000   9.3100000  -8.8100000
 -16.2840000  10.0180000  -9.1960000  -8.9970000  13.4870000  -5.4020000
  -8.6040000  14.3080000  -5.1060000  -9.9100000  13.5420000  -5.1200000
  -9.0630000  13.5990000  -5.3280000  -8.8240000  18.4300000 -11.6780000
  -9.0090000  17.6030000 -12.1240000  -9.1360000  19.1030000 -12.2830000
  -8.8880000  18.4100000 -11.8130000  -7.2360000  17.6650000 -18.5880000
  -7.0780000  18.5040000 -19.0210000  -6.9740000  17.8120000 -17.6790000
  -7.1820000  17.7910000 -18.5270000 -11.0340000  18.8100000  -9.5050000
 -11.0680000  18.1230000  -8.8400000 -10.5580000  18.4150000 -10.2350000
 -10.9780000  18.6720000  -9.5130000  -9.1550000   9.5380000 -16.8170000
  -8.4250000  10.1580000 -16.8280000  -9.9370000  10.0890000 -16.8480000
  -9.1620000   9.6880000 -16.8230000  -8.6320000  18.2660000  -7.7400000
  -7.8420000  18.8040000  -7.7940000  -9.2320000  18.6580000  -8.3740000
  -8.6080000  18.3850000  -7.8280000  -5.6420000  16.8960000 -12.8880000
  -6.0100000  17.4770000 -12.2230000  -4.7510000  17.2190000 -13.0220000
  -5.5750000  17.0120000 -12.8200000 -17.6400000   5.8720000 -13.2400000
 -17.2390000   6.4570000 -12.5960000 -18.1030000   6.4570000 -13.8390000
 -17.6470000   6.0220000 -13.2340000 -14.7630000  12.5870000 -16.9110000
 -14.6770000  12.5360000 -17.8630000 -15.3160000  13.3550000 -16.7620000
 -14.8230000  12.6790000 -17.0140000  -7.6280000  11.3300000  -2.8050000
  -8.4460000  11.1740000  -3.2760000  -7.5800000  12.2820000  -2.7160000
  -7.7260000  11.4320000  -2.8540000  -1.8050000  17.3030000  -6.0050000
  -1.5230000  17.2070000  -5.0950000  -2.5860000  17.8540000  -5.9560000
  -1.8690000  17.3610000  -5.8820000 -14.1530000  11.9650000 -10.9460000
 -14.2400000  12.7450000 -10.3970000 -14.0810000  11.2410000 -10.3230000
 -14.1550000  11.9720000 -10.7960000 -18.5220000   3.0490000 -15.7410000
 -18.5790000   2.7950000 -16.6620000 -19.0700000   3.8310000 -15.6730000
 -18.6000000   3.1170000 -15.8500000  -1.8840000  16.0810000 -12.5700000
  -1.8140000  15.4520000 -11.8530000  -1.8180000  15.5490000 -13.3630000
  -1.8670000  15.9330000 -12.5800000 -12.7270000  13.8250000 -15.9900000
 -13.4590000  13.3360000 -16.3660000 -12.0670000  13.8380000 -16.6820000
 -12.7370000  13.7640000 -16.1260000 -17.7810000  17.1700000  -5.4190000
 -18.0750000  16.8970000  -6.2890000 -18.0900000  18.0720000  -5.3350000
 -17.8590000  17.2500000  -5.5200000 -13.8660000  14.5340000  -6.0210000
 -14.4360000  15.2210000  -5.6740000 -14.3180000  13.7180000  -5.8070000
 -13.9970000  14.5180000  -5.9490000  -7.2740000  16.1150000 -14.9300000
  -7.9590000  16.0430000 -14.2650000  -6.4760000  16.2930000 -14.4330000
  -7.2600000  16.1280000 -14.7810000  -6.2650000  15.0870000 -18.6830000
  -6.6650000  15.9550000 -18.6330000  -6.7410000  14.5660000 -18.0360000
  -6.3770000  15.1320000 -18.5940000 -12.8860000  13.4080000 -12.8270000
 -13.5220000  12.9530000 -12.2760000 -13.3740000  14.1420000 -13.2000000
 -13.0290000  13.4440000 -12.8040000  -7.0080000  15.0790000  -4.6220000
  -7.2110000  14.7690000  -3.7400000  -6.4940000  14.3710000  -5.0120000
  -6.9680000  14.9480000  -4.5590000  -4.3630000  12.6810000  -1.9750000
  -5.0030000  12.1480000  -1.5030000  -4.4010000  12.3580000  -2.8760000
  -4.4500000  12.5710000  -2.0300000 -10.5960000  15.0490000  -1.8400000
 -10.9830000  14.6840000  -2.6360000 -11.2440000  15.6780000  -1.5250000
 -10.7290000  15.0820000  -1.9010000 -18.2360000  14.4030000  -4.4710000
 -18.6180000  15.2460000  -4.2270000 -17.4120000  14.6290000  -4.9020000
 -18.1800000  14.5400000  -4.4950000 -16.3340000   4.0290000  -9.0490000
 -16.4270000   3.5620000  -9.8790000 -15.5100000   3.7060000  -8.6840000
 -16.2400000   3.9280000  -9.1080000  -3.2530000  18.4800000 -13.4190000
  -3.5170000  18.4450000 -14.3380000  -2.6310000  17.7590000 -13.3200000
  -3.2070000  18.3830000 -13.5240000  -6.0790000  18.4760000 -15.9080000
  -6.5950000  17.7910000 -15.4820000  -6.5620000  19.2830000 -15.7340000
  -6.2070000  18.4910000 -15.8310000  -6.3420000  20.0190000  -7.6070000
  -5.5670000  19.8630000  -8.1460000  -6.3730000  20.9700000  -7.5010000
  -6.2470000  20.1210000  -7.6620000  -4.5790000  15.8510000  -2.0710000
  -4.3090000  14.9470000  -1.9110000  -5.5310000  15.8380000  -1.9700000
  -4.6660000  15.7340000  -2.0370000 -15.1710000  12.1450000  -5.9490000
 -15.6320000  12.4890000  -6.7140000 -15.0900000  11.2070000  -6.1210000
 -15.2200000  12.0690000  -6.0690000 -19.6870000  13.3890000 -17.4480000
 -19.0600000  12.8660000 -16.9490000 -19.1930000  13.6950000 -18.2090000
 -19.5430000  13.3610000 -17.4810000 -14.0150000  15.4730000 -14.1770000
 -14.7150000  15.8710000 -14.6940000 -13.5840000  14.8700000 -14.7830000
 -14.0490000  15.4470000 -14.3210000  -5.4140000  13.4160000  -6.3550000
  -5.5870000  13.3390000  -7.2930000  -4.6310000  13.9630000  -6.3000000
  -5.3360000  13.4760000  -6.4680000  -3.5680000  18.3670000  -2.7450000
  -3.1590000  18.5390000  -1.8970000  -3.8370000  17.4500000  -2.7000000
  -3.5500000  18.2720000  -2.6310000  -0.9010000  17.6590000 -15.7470000
  -0.3140000  17.4820000 -16.4820000  -1.4920000  18.3390000 -16.0710000
  -0.9020000  17.7230000 -15.8830000 -18.1100000  17.1550000 -17.9900000
 -17.5520000  16.3960000 -17.8180000 -17.5410000  17.9090000 -17.8340000
 -17.9650000  17.1540000 -17.9480000  -1.0610000  16.0140000  -0.7520000
  -1.8330000  16.0450000  -0.1880000  -0.4440000  16.6240000  -0.3460000
  -1.0810000  16.0960000  -0.6270000 -16.5350000  13.2810000  -7.7430000
 -16.2750000  13.9740000  -8.3510000 -17.4060000  13.5400000  -7.4440000
 -16.6120000  13.4030000  -7.7830000  -4.5060000  17.8980000  -6.1100000
  -4.9790000  18.7310000  -6.1170000  -5.0370000  17.3170000  -6.6540000
  -4.6350000  17.9300000  -6.1800000 -12.3940000   2.5690000 -24.1260000
 -12.1660000   2.5410000 -23.1970000 -13.0230000   1.8570000 -24.2390000
 -12.4450000   2.4740000 -24.0210000 -14.9950000  16.7550000 -23.8660000
 -15.9490000  16.6870000 -23.8980000 -14.8060000  17.0620000 -22.9800000
 -15.0930000  16.7860000 -23.7570000 -10.2300000  14.1990000 -30.7030000
 -10.4040000  14.3600000 -29.7750000 -10.9950000  13.7130000 -31.0090000
 -10.3500000  14.1570000 -30.6230000 -14.4780000   0.8550000 -24.6200000
 -15.0380000   1.3030000 -23.9860000 -14.6240000  -0.0760000 -24.4530000
 -14.5680000   0.7930000 -24.5180000 -13.6590000   9.0960000 -35.3720000
 -13.8140000   9.5530000 -34.5450000 -12.9470000   8.4860000 -35.1800000
 -13.5880000   9.0760000 -35.2420000  -3.4980000  15.2550000 -37.1860000
  -4.3600000  15.5830000 -37.4420000  -3.5940000  14.3030000 -37.1870000
  -3.6210000  15.1750000 -37.2190000 -16.7720000  15.3520000 -30.4090000
 -16.7350000  16.2450000 -30.7530000 -17.5710000  15.3310000 -29.8830000
 -16.8690000  15.4640000 -30.3860000 -12.0610000  17.1420000 -33.7200000
 -12.8600000  16.6150000 -33.7100000 -11.7170000  17.0390000 -34.6070000
 -12.1190000  17.0610000 -33.8320000  -7.8410000   4.1310000 -23.4990000
  -7.6630000   3.2490000 -23.1730000  -7.5220000   4.7110000 -22.8070000
  -7.7770000   4.0920000 -23.3680000  -8.1530000  12.1270000 -31.2530000
  -8.5790000  11.5200000 -31.8570000  -8.8160000  12.7940000 -31.0750000
  -8.2920000  12.1350000 -31.3070000  -2.4010000   2.7590000 -32.0000000
  -2.3330000   1.8120000 -32.1240000  -1.5320000   3.0240000 -31.6990000
  -2.2810000   2.6720000 -31.9770000  -1.2820000   7.0500000 -30.1590000
  -2.0610000   7.1600000 -29.6140000  -0.9380000   7.9360000 -30.2680000
  -1.3380000   7.1770000 -30.1030000 -10.1860000   3.1780000 -36.0110000
 -10.4520000   2.7150000 -35.2160000 -10.1700000   2.5010000 -36.6870000
 -10.2180000   3.0320000 -35.9950000  -9.9510000  10.3660000 -22.7270000
 -10.0790000   9.5010000 -22.3380000  -9.5080000  10.1910000 -23.5580000
  -9.9110000  10.2330000 -22.7840000  -7.0750000  11.3180000 -35.7080000
  -6.3050000  11.3390000 -35.1410000  -6.7560000  10.9510000 -36.5320000
  -6.9360000  11.2740000 -35.7410000  -1.3390000  10.9550000 -33.9780000
  -1.7050000  11.5960000 -33.3680000  -2.1040000  10.5330000 -34.3700000
  -1.4840000  10.9830000 -33.9500000 -18.8270000   4.6960000 -24.1700000
 -18.5500000   5.2650000 -23.4520000 -19.4290000   4.0730000 -23.7630000
 -18.8680000   4.6890000 -24.0260000  -3.3570000  12.5550000 -36.9610000
  -3.3150000  12.4210000 -37.9080000  -2.4710000  12.8220000 -36.7180000
  -3.2380000  12.5720000 -37.0510000 -17.9540000  11.0330000 -21.5770000
 -18.8750000  10.8130000 -21.7170000 -17.8750000  11.1400000 -20.6300000
 -18.0620000  11.0180000 -21.4740000  -3.0140000   2.9850000 -34.8730000
  -2.8820000   2.8410000 -33.9360000  -3.8820000   3.3840000 -34.9330000
  -3.1080000   3.0170000 -34.7600000  -6.3640000  14.7220000 -30.3720000
  -6.1880000  15.5720000 -30.7750000  -7.1230000  14.3850000 -30.8460000
  -6.4380000  14.7880000 -30.4840000  -6.5740000  18.0470000 -29.1200000
  -5.9880000  18.7840000 -29.2950000  -7.3560000  18.2330000 -29.6390000
  -6.5990000  18.1650000 -29.2090000 -14.2520000   5.3020000 -30.6000000
 -14.6590000   5.3010000 -31.4670000 -14.7380000   5.9650000 -30.1090000
 -14.3660000   5.3870000 -30.6480000 -16.1340000   1.6980000 -22.5820000
 -15.9260000   2.5960000 -22.3250000 -16.4890000   1.2970000 -21.7890000
 -16.1520000   1.7610000 -22.4480000 -14.8250000   2.4890000 -31.8820000
 -15.5840000   2.4760000 -31.2970000 -14.2930000   1.7450000 -31.6010000
 -14.8540000   2.3920000 -31.7710000 -10.1650000   6.6880000 -32.0510000
 -10.9900000   6.6700000 -32.5360000 -10.4160000   6.5020000 -31.1460000
 -10.3030000   6.6620000 -31.9970000 -13.0510000  16.3530000 -27.4340000
 -13.3120000  15.9780000 -26.5930000 -12.3200000  15.8080000 -27.7230000
 -12.9910000  16.2350000 -27.3640000 -14.8140000  14.5460000 -28.7190000
 -15.5370000  14.8490000 -29.2670000 -14.2190000  15.2960000 -28.6710000
 -14.8290000  14.6810000 -28.7830000 -18.2650000   4.7000000 -18.5290000
 -18.4630000   4.7810000 -19.4610000 -19.0580000   5.0030000 -18.0880000
 -18.3910000   4.7490000 -18.5920000 -15.3400000   8.3100000 -37.3810000
 -15.9430000   9.0470000 -37.4770000 -14.7110000   8.6000000 -36.7200000
 -15.3370000   8.4410000 -37.3090000 -10.9130000  16.7720000 -36.0880000
 -10.4540000  15.9500000 -35.9160000 -10.2150000  17.4120000 -36.2270000
 -10.7650000  16.7490000 -36.0840000 -12.1900000   7.2630000 -27.1060000
 -11.3090000   7.5550000 -26.8740000 -12.1040000   6.9290000 -27.9990000
 -12.0660000   7.2580000 -27.1910000 -18.2960000  13.7260000 -19.7720000
 -19.0580000  14.2940000 -19.8890000 -18.0910000  13.4160000 -20.6540000
 -18.3680000  13.7590000 -19.9000000 -16.2250000  15.0210000 -18.4350000
 -15.7420000  15.5820000 -19.0420000 -16.6680000  14.3850000 -18.9960000
 -16.2200000  15.0120000 -18.5840000 -12.5990000  16.7570000 -19.6370000
 -12.0250000  16.6700000 -18.8760000 -12.6410000  17.6990000 -19.7990000
 -12.5310000  16.8660000 -19.5610000  -2.7640000  11.0900000 -26.8000000
  -2.3240000  11.5970000 -26.1170000  -3.4360000  10.5930000 -26.3340000
  -2.7930000  11.0910000 -26.6530000  -1.5490000  12.8580000 -24.5720000
  -2.2630000  13.4630000 -24.7710000  -0.8330000  13.4210000 -24.2750000
  -1.5480000  13.0070000 -24.5590000 -12.2440000  10.6110000 -19.7360000
 -12.4010000   9.6670000 -19.7720000 -12.3340000  10.9030000 -20.6430000
 -12.2760000  10.5270000 -19.8570000  -8.0370000  13.9190000 -35.6340000
  -7.7330000  13.0260000 -35.4780000  -7.5100000  14.4590000 -35.0450000
  -7.9310000  13.8740000 -35.5390000  -5.4140000   4.4070000 -35.0580000
  -5.3100000   4.7510000 -34.1710000  -5.5440000   5.1830000 -35.6030000
  -5.4170000   4.5500000 -35.0140000  -2.7720000   5.2550000 -27.7310000
  -1.8600000   5.2660000 -27.4380000  -2.7720000   4.6700000 -28.4890000
  -2.6550000   5.1810000 -27.7900000  -4.9270000   9.5920000 -25.8800000
  -5.8020000   9.3350000 -26.1700000  -4.5750000   8.8090000 -25.4560000
  -4.9940000   9.4590000 -25.8630000 -15.2180000  16.5080000 -20.7220000
 -15.4700000  17.4120000 -20.5310000 -14.3140000  16.4430000 -20.4190000
 -15.1340000  16.6160000 -20.6590000 -13.1850000   1.5810000 -37.0710000
 -12.8430000   1.5900000 -36.1770000 -13.6700000   2.4030000 -37.1490000
 -13.2030000   1.6880000 -36.9670000 -18.0160000   1.4970000 -27.1670000
 -17.1830000   1.9510000 -27.2910000 -18.6040000   1.8960000 -27.8070000
 -17.9850000   1.6060000 -27.2640000 -16.9170000   0.6300000 -20.1550000
 -17.7500000   0.2030000 -19.9540000 -16.9510000   1.4570000 -19.6750000
 -17.0280000   0.6810000 -20.0680000 -10.5820000   6.0920000 -29.4170000
 -10.4960000   5.3080000 -28.8740000 -10.1420000   6.7790000 -28.9170000
 -10.5150000   6.0800000 -29.2840000  -1.9040000  14.8320000 -34.0810000
  -1.7830000  15.7070000 -34.4490000  -1.6950000  14.2380000 -34.8020000
  -1.8620000  14.8680000 -34.2210000  -3.4860000   0.2310000 -35.2030000
  -3.3580000   1.1460000 -35.4550000  -4.4350000   0.1360000 -35.1180000
  -3.5910000   0.3360000 -35.2240000 -17.5070000  18.3140000 -32.8980000
 -18.2890000  18.1830000 -33.4360000 -17.5370000  19.2390000 -32.6540000
 -17.6110000  18.4160000 -32.9360000 -11.1540000  14.5800000 -28.2080000
 -11.6340000  13.7720000 -28.0310000 -10.4240000  14.5660000 -27.5890000
 -11.1220000  14.4750000 -28.1060000  -0.3110000   1.5690000 -37.2020000
  -0.4870000   2.4100000 -37.6230000  -1.1200000   1.0700000 -37.3160000
  -0.4370000   1.6130000 -37.2700000   2.2580000   7.4970000 -29.8240000
   2.2720000   7.1840000 -28.9190000   2.2090000   8.4500000 -29.7470000
   2.2540000   7.5790000 -29.6980000  -8.3490000   5.4330000 -35.9410000
  -8.9750000   4.7090000 -35.9170000  -8.1310000   5.5920000 -35.0230000
  -8.4010000   5.3610000 -35.8210000 -14.6840000  12.2670000 -19.4870000
 -13.8730000  11.7790000 -19.6290000 -14.9530000  12.5440000 -20.3630000
 -14.6150000  12.2400000 -19.6180000 -15.7760000  16.8390000 -34.3640000
 -16.3580000  17.3370000 -33.7910000 -15.5470000  17.4500000 -35.0640000
 -15.8210000  16.9810000 -34.3800000  -2.1770000   8.3980000 -35.9400000
  -2.6340000   8.1570000 -35.1340000  -1.2510000   8.2580000 -35.7410000
  -2.1170000   8.3490000 -35.8110000 -12.4220000  11.3070000 -22.4590000
 -11.5420000  10.9340000 -22.5110000 -12.9600000  10.7260000 -22.9960000
 -12.3780000  11.1850000 -22.5340000  -3.4330000  15.0180000 -24.1020000
  -3.7840000  14.9150000 -23.2170000  -3.2850000  15.9600000 -24.1920000
  -3.4590000  15.1250000 -24.0000000  -1.2960000  16.7850000 -22.2230000
  -1.0980000  16.3900000 -21.3730000  -1.9670000  17.4400000 -22.0320000
  -1.3570000  16.8180000 -22.0900000  -5.9780000   9.5640000 -22.8100000
  -6.5350000   9.1700000 -23.4820000  -6.5540000  10.1740000 -22.3500000
  -6.1230000   9.5920000 -22.8370000  -8.1510000   5.5510000 -33.2770000
  -8.9740000   5.8340000 -32.8810000  -7.4730000   5.9370000 -32.7220000
  -8.1690000   5.6360000 -33.1550000 -15.1390000   9.1420000 -25.1840000
 -15.5160000   9.0150000 -24.3140000 -15.7020000   8.6310000 -25.7660000
 -15.2590000   9.0610000 -25.1470000  -6.1320000  10.6520000 -29.7290000
  -5.5870000  11.1530000 -29.1220000  -6.8260000  11.2590000 -29.9860000
  -6.1510000  10.7930000 -29.6840000 -18.1490000  12.2180000 -28.9080000
 -17.7550000  12.1480000 -29.7780000 -17.5370000  11.7630000 -28.3310000
 -18.0200000  12.1510000 -28.9460000  -3.4280000   7.8980000 -33.5360000
  -3.4710000   8.5170000 -32.8060000  -3.7940000   7.0870000 -33.1840000
  -3.4800000   7.8740000 -33.3970000  -8.6780000   8.7620000 -33.0570000
  -9.3500000   8.0810000 -33.0270000  -8.5990000   8.9790000 -33.9860000
  -8.7540000   8.7030000 -33.1720000  -7.4920000  17.7410000 -23.9390000
  -8.0410000  17.6720000 -24.7190000  -7.1280000  16.8640000 -23.8230000
  -7.5150000  17.6200000 -24.0240000 -12.6280000  12.2550000 -27.1100000
 -12.6680000  11.3000000 -27.1470000 -13.0840000  12.4830000 -26.3000000
 -12.6910000  12.1620000 -27.0110000  -4.6630000   8.9080000 -20.4280000
  -5.3540000   8.2680000 -20.2600000  -4.8710000   9.2640000 -21.2910000
  -4.7780000   8.8710000 -20.5170000 -19.0450000   8.0100000 -33.2910000
 -18.3800000   8.6100000 -32.9530000 -19.8770000   8.4440000 -33.1020000
 -19.0660000   8.1420000 -33.2230000 -16.7130000  12.4550000 -31.0890000
 -16.0340000  12.1750000 -30.4750000 -16.6140000  13.4050000 -31.1380000
 -16.6130000  12.5410000 -31.0160000 -11.2980000  11.1910000 -36.0020000
 -11.6810000  10.8820000 -36.8230000 -11.0590000  12.1020000 -36.1770000
 -11.3160000  11.2680000 -36.1290000 -17.0420000   2.6460000 -30.3240000
 -17.2800000   1.8270000 -30.7580000 -17.8030000   3.2140000 -30.4510000
 -17.1700000   2.6140000 -30.3960000 -12.4710000   1.4610000 -34.3200000
 -12.2260000   0.5860000 -34.0190000 -12.6860000   1.9380000 -33.5190000
 -12.4670000   1.4100000 -34.1790000  -8.7850000  14.8660000 -26.7000000
  -8.8490000  14.3460000 -25.8980000  -8.2400000  15.6150000 -26.4570000
  -8.7240000  14.8950000 -26.5660000  -3.2860000  13.7620000 -30.0810000
  -4.2010000  13.7720000 -30.3640000  -3.1640000  12.8940000 -29.6960000
  -3.3880000  13.6520000 -30.0680000 -15.6340000   5.7260000 -36.2860000
 -16.5580000   5.4830000 -36.2480000 -15.6370000   6.6460000 -36.5510000
 -15.7510000   5.8130000 -36.3150000 -13.6640000  10.0790000 -32.9970000
 -12.8410000  10.5650000 -33.0350000 -13.6130000   9.5840000 -32.1800000
 -13.5520000  10.0780000 -32.8980000 -16.9740000  17.9540000 -28.9210000
 -17.5150000  18.3770000 -28.2540000 -16.0740000  18.1510000 -28.6590000
 -16.9280000  18.0340000 -28.8020000  -4.3260000   6.5830000 -36.8310000
  -3.8480000   6.2300000 -37.5800000  -3.8240000   7.3550000 -36.5680000
  -4.2010000   6.6370000 -36.8930000 -15.4330000  12.0190000 -22.0010000
 -15.4700000  12.3360000 -22.9030000 -16.3040000  11.6600000 -21.8360000
 -15.5490000  12.0130000 -22.0950000 -11.5240000  13.7590000 -23.4260000
 -12.3070000  14.1650000 -23.7950000 -11.8120000  12.8880000 -23.1530000
 -11.6610000  13.6990000 -23.4380000 -17.7860000  15.7710000 -26.6830000
 -17.1310000  16.1320000 -27.2800000 -18.4650000  15.4160000 -27.2580000
 -17.7900000  15.7720000 -26.8330000 -12.4980000   9.7160000 -24.9470000
 -12.1730000   8.9130000 -24.5400000 -13.3670000   9.4840000 -25.2730000
 -12.5680000   9.5840000 -24.9370000 -16.8820000  10.6500000 -18.9780000
 -16.0790000  11.1600000 -19.0880000 -17.3320000  11.0680000 -18.2440000
 -16.8380000  10.7690000 -18.8980000  -6.3860000   7.7980000 -29.7180000
  -5.8880000   7.5910000 -30.5090000  -6.2020000   8.7230000 -29.5540000
  -6.2990000   7.8900000 -29.7980000 -11.7610000   6.5440000 -35.9770000
 -12.2420000   5.7270000 -36.1080000 -11.3270000   6.7030000 -36.8150000
 -11.7670000   6.4600000 -36.1010000 -17.7970000  11.5810000 -35.5190000
 -17.0300000  11.2580000 -35.0440000 -18.5400000  11.3420000 -34.9640000
 -17.7950000  11.5090000 -35.3870000  -1.6980000  18.5700000 -27.6500000
  -1.8450000  17.6270000 -27.5690000  -1.0440000  18.7680000 -26.9790000
  -1.6330000  18.4740000 -27.5540000  -0.3650000  14.8480000 -28.8640000
  -1.2090000  15.2610000 -28.6800000  -0.4970000  13.9260000 -28.6460000
  -0.4900000  14.7830000 -28.8130000 -18.4600000   5.3370000 -26.8230000
 -17.6610000   4.9870000 -27.2180000 -18.4790000   4.9570000 -25.9450000
 -18.3600000   5.2430000 -26.7610000  -9.0650000   8.3940000 -29.0950000
  -9.4720000   9.1540000 -29.5110000  -8.2030000   8.3290000 -29.5050000
  -9.0070000   8.4830000 -29.2010000  -4.5280000   9.6330000 -31.6130000
  -3.8540000  10.0450000 -31.0730000  -5.3380000  10.0790000 -31.3670000
  -4.5450000   9.7430000 -31.5130000 -16.3740000  10.1240000 -28.1100000
 -15.4170000  10.1080000 -28.1290000 -16.6190000   9.3100000 -27.6700000
 -16.2840000  10.0180000 -28.0560000  -6.0710000   4.1340000 -25.5710000
  -6.5250000   4.5760000 -26.2890000  -6.6130000   4.3090000 -24.8020000
  -6.1980000   4.2130000 -25.5650000  -7.5320000   5.6100000 -27.7610000
  -6.9060000   6.0600000 -28.3280000  -7.6740000   4.7630000 -28.1850000
  -7.4700000   5.5590000 -27.8880000  -8.9970000  13.4870000 -24.2620000
  -8.6040000  14.3080000 -23.9660000  -9.9100000  13.5420000 -23.9800000
  -9.0630000  13.5990000 -24.1880000  -7.5080000   2.3550000 -35.0050000
  -8.2670000   2.6030000 -35.5330000  -6.9530000   3.1350000 -35.0040000
  -7.5340000   2.4870000 -35.0720000 -14.9740000   5.6480000 -33.2880000
 -15.0640000   5.3770000 -34.2010000 -15.8710000   5.8050000 -32.9950000
 -15.1000000   5.6340000 -33.3670000  -3.7730000   6.7710000 -25.1130000
  -4.0380000   6.1190000 -24.4630000  -3.5540000   6.2580000 -25.8910000
  -3.7790000   6.6220000 -25.1290000 -13.0270000   8.5640000 -30.8880000
 -12.8390000   7.8120000 -31.4500000 -12.1710000   8.9550000 -30.7180000
 -12.8940000   8.5180000 -30.9380000 -14.3800000   0.4340000 -28.7290000
 -14.2090000   1.3550000 -28.5300000 -13.8140000  -0.0500000 -28.1280000
 -14.2860000   0.4900000 -28.6270000 -10.5770000  13.7710000 -36.6050000
  -9.7330000  13.7330000 -36.1540000 -10.3540000  13.9760000 -37.5130000
 -10.4400000  13.7920000 -36.6630000 -13.5260000   9.5610000 -28.3360000
 -13.2690000   9.1430000 -29.1580000 -13.4420000   8.8690000 -27.6800000
 -13.4820000   9.4190000 -28.3570000  -6.2140000  14.0160000 -27.8770000
  -6.1160000  14.2630000 -28.7970000  -7.0680000  14.3660000 -27.6250000
  -6.3110000  14.0920000 -27.9620000  -8.8240000  18.4300000 -30.5380000
  -9.0090000  17.6030000 -30.9840000  -9.1360000  19.1030000 -31.1430000
  -8.8880000  18.4100000 -30.6730000  -7.2360000  17.6650000 -37.4480000
  -7.0780000  18.5040000 -37.8810000  -6.9740000  17.8120000 -36.5390000
  -7.1820000  17.7910000 -37.3870000  -5.1260000  16.4420000 -27.3380000
  -5.6700000  17.0420000 -27.8490000  -5.5170000  15.5810000 -27.4840000
  -5.2450000  16.4090000 -27.4220000  -1.3510000   7.8510000 -23.7150000
  -2.2470000   7.5260000 -23.8020000  -1.4510000   8.7460000 -23.3900000
  -1.4790000   7.9240000 -23.6840000 -11.0340000  18.8100000 -28.3650000
 -11.0680000  18.1230000 -27.7000000 -10.5580000  18.4150000 -29.0950000
 -10.9780000  18.6720000 -28.3730000  -9.1550000   9.5380000 -35.6770000
  -8.4250000  10.1580000 -35.6880000  -9.9370000  10.0890000 -35.7080000
  -9.1620000   9.6880000 -35.6830000  -9.5230000   6.9190000 -26.5610000
  -9.9720000   6.1650000 -26.1790000  -8.8010000   6.5390000 -27.0610000
  -9.4880000   6.7740000 -26.5760000  -7.9880000  11.0430000 -24.8490000
  -8.2640000  11.8670000 -24.4470000  -7.0370000  11.0300000 -24.7400000
  -7.9010000  11.1470000 -24.7840000 -12.5000000   3.6560000 -32.5780000
 -12.6480000   4.5990000 -32.6560000 -13.2920000   3.3240000 -32.1540000
 -12.6200000   3.7340000 -32.5340000  -8.6320000  18.2660000 -26.6000000
  -7.8420000  18.8040000 -26.6540000  -9.2320000  18.6580000 -27.2340000
  -8.6080000  18.3850000 -26.6880000 -13.2440000   4.1450000 -35.9830000
 -14.1610000   3.9300000 -35.8170000 -12.7690000   3.7570000 -35.2480000
 -13.3010000   4.0680000 -35.8680000 -16.6020000   8.8910000 -22.7120000
 -17.2810000   9.5300000 -22.4920000 -17.0120000   8.0420000 -22.5490000
 -16.7420000   8.8640000 -22.6630000  -5.6420000  16.8960000 -31.7480000
  -6.0100000  17.4770000 -31.0830000  -4.7510000  17.2190000 -31.8820000
  -5.5750000  17.0120000 -31.6800000 -18.4540000   1.8000000 -24.1300000
 -17.5920000   1.7610000 -23.7160000 -18.2680000   1.9500000 -25.0570000
 -18.3200000   1.8140000 -24.1960000  -7.5370000   9.3330000 -26.7630000
  -7.8050000   9.9760000 -26.1060000  -8.3360000   9.1510000 -27.2590000
  -7.6740000   9.3920000 -26.7430000 -18.9950000   6.9710000 -20.1430000
 -19.5950000   7.7040000 -20.0020000 -18.4480000   6.9540000 -19.3570000
 -19.0020000   7.0630000 -20.0240000 -17.6400000   5.8720000 -32.1000000
 -17.2390000   6.4570000 -31.4560000 -18.1030000   6.4570000 -32.6990000
 -17.6470000   6.0220000 -32.0940000  -7.5600000   7.6670000 -24.2010000
  -7.7230000   7.9760000 -25.0920000  -8.4210000   7.4030000 -23.8780000
  -7.6910000   7.6730000 -24.2730000 -15.6790000   0.5510000 -36.0550000
 -15.6780000   1.2930000 -35.4510000 -15.1750000   0.8550000 -36.8090000
 -15.6140000   0.6850000 -36.0740000 -14.7630000  12.5870000 -35.7710000
 -14.6770000  12.5360000 -36.7230000 -15.3160000  13.3550000 -35.6220000
 -14.8230000  12.6790000 -35.8740000  -7.6280000  11.3300000 -21.6650000
  -8.4460000  11.1740000 -22.1360000  -7.5800000  12.2820000 -21.5760000
  -7.7260000  11.4320000 -21.7140000  -3.2780000   6.0260000 -20.4340000
  -2.5650000   5.3940000 -20.3390000  -2.8380000   6.8630000 -20.5800000
  -3.1310000   6.0520000 -20.4410000 -17.2500000   7.8080000 -26.9120000
 -18.0280000   8.3140000 -26.6810000 -17.5120000   6.8950000 -26.7890000
 -17.3820000   7.7560000 -26.8670000  -1.8050000  17.3030000 -24.8650000
  -1.5230000  17.2070000 -23.9550000  -2.5860000  17.8540000 -24.8160000
  -1.8690000  17.3610000 -24.7420000 -14.1530000  11.9650000 -29.8060000
 -14.2400000  12.7450000 -29.2570000 -14.0810000  11.2410000 -29.1830000
 -14.1550000  11.9720000 -29.6560000 -18.5220000   3.0490000 -34.6010000
 -18.5790000   2.7950000 -35.5220000 -19.0700000   3.8310000 -34.5330000
 -18.6000000   3.1170000 -34.7100000 -12.9690000   0.6220000 -31.1700000
 -13.3740000   0.2910000 -30.3680000 -12.8620000  -0.1520000 -31.7220000
 -13.0070000   0.4810000 -31.1380000  -1.8840000  16.0810000 -31.4300000
  -1.8140000  15.4520000 -30.7130000  -1.8180000  15.5490000 -32.2230000
  -1.8670000  15.9330000 -31.4400000 -12.4260000   6.6680000 -33.2840000
 -12.0530000   6.6030000 -34.1630000 -13.3310000   6.3720000 -33.3850000
 -12.4940000   6.6210000 -33.4090000 -12.7270000  13.8250000 -34.8500000
 -13.4590000  13.3360000 -35.2260000 -12.0670000  13.8380000 -35.5420000
 -12.7370000  13.7640000 -34.9860000 -10.2810000   3.5650000 -30.8990000
 -11.1330000   3.4270000 -31.3110000 -10.2310000   4.5120000 -30.7630000
 -10.3830000   3.6690000 -30.9340000 -17.7810000  17.1700000 -24.2790000
 -18.0750000  16.8970000 -25.1490000 -18.0900000  18.0720000 -24.1950000
 -17.8590000  17.2500000 -24.3800000  -9.2360000   7.2360000 -37.6600000
  -9.2550000   7.8860000 -36.9580000  -8.8810000   6.4480000 -37.2480000
  -9.1930000   7.2190000 -37.5180000 -13.8660000  14.5340000 -24.8810000
 -14.4360000  15.2210000 -24.5340000 -14.3180000  13.7180000 -24.6670000
 -13.9970000  14.5180000 -24.8090000  -7.2740000  16.1150000 -33.7900000
  -7.9590000  16.0430000 -33.1250000  -6.4760000  16.2930000 -33.2930000
  -7.2600000  16.1280000 -33.6410000  -9.5630000   1.7390000 -32.8080000
  -9.7880000   2.5240000 -32.3090000  -8.6640000   1.8910000 -33.1000000
  -9.4760000   1.8590000 -32.7810000  -4.1110000   5.3240000 -32.6900000
  -4.3320000   5.0740000 -31.7920000  -3.2950000   4.8580000 -32.8730000
  -4.0350000   5.2320000 -32.5980000  -6.2650000  15.0870000 -37.5430000
  -6.6650000  15.9550000 -37.4930000  -6.7410000  14.5660000 -36.8960000
  -6.3770000  15.1320000 -37.4540000 -10.3080000   3.8740000 -27.5230000
 -11.1590000   3.4430000 -27.6100000 -10.2090000   4.0210000 -26.5820000
 -10.4050000   3.8380000 -27.4140000 -12.8860000  13.4080000 -31.6870000
 -13.5220000  12.9530000 -31.1360000 -13.3740000  14.1420000 -32.0600000
 -13.0290000  13.4440000 -31.6640000  -7.0080000  15.0790000 -23.4820000
  -7.2110000  14.7690000 -22.6000000  -6.4940000  14.3710000 -23.8720000
  -6.9680000  14.9480000 -23.4190000  -1.4200000   5.3480000 -34.8540000
  -2.2430000   4.8610000 -34.9020000  -1.6720000   6.2120000 -34.5260000
  -1.5570000   5.3960000 -34.8180000  -4.3630000  12.6810000 -20.8350000
  -5.0030000  12.1480000 -20.3630000  -4.4010000  12.3580000 -21.7360000
  -4.4500000  12.5710000 -20.8900000 -10.5960000  15.0490000 -20.7000000
 -10.9830000  14.6840000 -21.4960000 -11.2440000  15.6780000 -20.3850000
 -10.7290000  15.0820000 -20.7610000 -16.3340000   4.0290000 -27.9090000
 -16.4270000   3.5620000 -28.7390000 -15.5100000   3.7060000 -27.5440000
 -16.2400000   3.9280000 -27.9680000  -1.6960000  10.5180000 -23.0180000
  -2.5870000  10.7340000 -22.7400000  -1.4190000  11.2710000 -23.5400000
  -1.7750000  10.6420000 -23.0490000  -2.6280000  12.5400000 -32.5860000
  -2.6060000  12.6560000 -31.6360000  -2.4550000  13.4130000 -32.9370000
  -2.6030000  12.6670000 -32.5090000  -3.2530000  18.4800000 -32.2790000
  -3.5170000  18.4450000 -33.1980000  -2.6310000  17.7590000 -32.1800000
  -3.2070000  18.3830000 -32.3840000  -6.0790000  18.4760000 -34.7680000
  -6.5950000  17.7910000 -34.3420000  -6.5620000  19.2830000 -34.5940000
  -6.2070000  18.4910000 -34.6910000 -14.1700000   3.2870000 -26.6530000
 -13.7180000   2.7080000 -26.0390000 -13.6070000   3.3020000 -27.4260000
 -14.0400000   3.2150000 -26.6730000 -17.5880000   6.3870000 -22.3840000
 -18.1550000   6.7480000 -23.0660000 -18.0850000   6.5030000 -21.5740000
 -17.7240000   6.4480000 -22.3680000  -6.3420000  20.0190000 -26.4670000
  -5.5670000  19.8630000 -27.0060000  -6.3730000  20.9700000 -26.3610000
  -6.2470000  20.1210000 -26.5220000  -9.7720000  16.4310000 -32.2380000
 -10.0100000  15.6180000 -31.7940000 -10.5770000  16.7090000 -32.6750000
  -9.9050000  16.3630000 -32.2370000  -4.5790000  15.8510000 -20.9310000
  -4.3090000  14.9470000 -20.7710000  -5.5310000  15.8380000 -20.8300000
  -4.6660000  15.7340000 -20.8970000  -4.2690000  11.5570000 -23.2340000
  -4.8790000  10.8210000 -23.1780000  -4.7010000  12.1810000 -23.8170000
  -4.4020000  11.5420000 -23.3010000 -15.1710000  12.1450000 -24.8090000
 -15.6320000  12.4890000 -25.5740000 -15.0900000  11.2070000 -24.9810000
 -15.2200000  12.0690000 -24.9290000 -16.9750000   9.7860000 -32.6240000
 -16.0190000   9.8180000 -32.5970000 -17.2460000  10.7030000 -32.5860000
 -16.8870000   9.9070000 -32.6160000 -15.6160000   3.0760000 -34.6530000
 -15.3090000   3.1410000 -33.7490000 -16.5350000   2.8180000 -34.5740000
 -15.6940000   3.0510000 -34.5270000  -6.3070000   7.3370000 -32.2690000
  -5.6870000   7.7810000 -32.8480000  -7.1170000   7.8410000 -32.3540000
  -6.3310000   7.4590000 -32.3540000 -19.6870000  13.3890000 -36.3080000
 -19.0600000  12.8660000 -35.8090000 -19.1930000  13.6950000 -37.0690000
 -19.5430000  13.3610000 -36.3410000 -14.0150000  15.4730000 -33.0370000
 -14.7150000  15.8710000 -33.5540000 -13.5840000  14.8700000 -33.6430000
 -14.0490000  15.4470000 -33.1810000  -5.4140000  13.4160000 -25.2150000
  -5.5870000  13.3390000 -26.1530000  -4.6310000  13.9630000 -25.1600000
  -5.3360000  13.4760000 -25.3280000 -10.5960000   9.8000000 -30.8960000
 -10.0820000   9.2000000 -31.4360000 -10.8700000  10.4900000 -31.5000000
 -10.5660000   9.8110000 -31.0420000  -3.5680000  18.3670000 -21.6050000
  -3.1590000  18.5390000 -20.7570000  -3.8370000  17.4500000 -21.5600000
  -3.5500000  18.2720000 -21.4910000  -0.9010000  17.6590000 -34.6070000
  -0.3140000  17.4820000 -35.3420000  -1.4920000  18.3390000 -34.9310000
  -0.9020000  17.7230000 -34.7430000 -18.1100000  17.1550000 -36.8500000
 -17.5520000  16.3960000 -36.6780000 -17.5410000  17.9090000 -36.6940000
 -17.9650000  17.1540000 -36.8080000  -1.0610000  16.0140000 -19.6120000
  -1.8330000  16.0450000 -19.0480000  -0.4440000  16.6240000 -19.2060000
  -1.0810000  16.0960000 -19.4870000  -0.5390000   4.3650000 -30.8510000
   0.0430000   4.8500000 -31.4370000  -1.1050000   5.0350000 -30.4680000
  -0.5370000   4.5130000 -30.8770000 -12.8200000   3.1840000 -28.9850000
 -12.9980000   3.7740000 -29.7170000 -12.3350000   2.4570000 -29.3750000
 -12.7810000   3.1670000 -29.1280000 -19.2150000   9.7740000 -30.4080000
 -18.6180000  10.0300000 -31.1120000 -18.9120000  10.2690000 -29.6460000
 -19.1000000   9.8700000 -30.4010000 -16.5350000  13.2810000 -26.6030000
 -16.2750000  13.9740000 -27.2110000 -17.4060000  13.5400000 -26.3040000
 -16.6120000  13.4030000 -26.6430000  -2.8460000  10.8710000 -29.6220000
  -1.9930000  10.5300000 -29.8920000  -2.8240000  10.8420000 -28.6660000
  -2.7340000  10.8230000 -29.5350000  -6.3660000   7.1050000 -19.6480000
  -7.1500000   7.0660000 -19.1000000  -5.7290000   6.5540000 -19.1940000
  -6.3850000   7.0300000 -19.5200000  -4.7000000  11.5420000 -34.4070000
  -4.3040000  11.8830000 -33.6050000  -4.2090000  11.9610000 -35.1140000
  -4.5870000  11.6390000 -34.3950000  -4.9710000   5.6280000 -22.4450000
  -4.2780000   5.8220000 -21.8130000  -5.6070000   6.3340000 -22.3270000
  -4.9640000   5.7430000 -22.3490000  -4.5060000  17.8980000 -24.9700000
  -4.9790000  18.7310000 -24.9770000  -5.0370000  17.3170000 -25.5140000
  -4.6350000  17.9300000 -25.0400000 -12.3940000   2.5690000 -42.9860000
 -12.1660000   2.5410000 -42.0570000 -13.0230000   1.8570000 -43.0990000
 -12.4450000   2.4740000 -42.8810000 -14.9950000  16.7550000 -42.7260000
 -15.9490000  16.6870000 -42.7580000 -14.8060000  17.0620000 -41.8400000
 -15.0930000  16.7860000 -42.6170000 -14.4780000   0.8550000 -43.4800000
 -15.0380000   1.3030000 -42.8460000 -14.6240000  -0.0760000 -43.3130000
 -14.5680000   0.7930000 -43.3780000 -10.2640000   4.3050000 -43.6270000
 -10.8670000   3.6640000 -43.2520000  -9.4750000   4.2360000 -43.0890000
 -10.2400000   4.2150000 -43.5100000  -9.7260000   0.7420000 -37.3490000
  -8.8340000   0.5130000 -37.6130000 -10.2480000   0.6210000 -38.1420000
  -9.6780000   0.6980000 -37.4840000  -7.8410000   4.1310000 -42.3580000
  -7.6630000   3.2490000 -42.0330000  -7.5220000   4.7110000 -41.6670000
  -7.7770000   4.0920000 -42.2280000  -9.9510000  10.3660000 -41.5870000
 -10.0790000   9.5010000 -41.1980000  -9.5080000  10.1910000 -42.4180000
  -9.9110000  10.2330000 -41.6440000 -18.8270000   4.6960000 -43.0300000
 -18.5500000   5.2650000 -42.3120000 -19.4290000   4.0730000 -42.6230000
 -18.8680000   4.6890000 -42.8860000 -17.9540000  11.0330000 -40.4370000
 -18.8750000  10.8130000 -40.5770000 -17.8750000  11.1400000 -39.4900000
 -18.0620000  11.0180000 -40.3340000  -6.5740000  18.0470000 -47.9800000
  -5.9880000  18.7840000 -48.1550000  -7.3560000  18.2330000 -48.4990000
  -6.5990000  18.1650000 -48.0690000 -16.1340000   1.6980000 -41.4420000
 -15.9260000   2.5960000 -41.1850000 -16.4890000   1.2970000 -40.6490000
 -16.1520000   1.7610000 -41.3080000  -7.7850000   6.1870000 -40.4430000
  -7.1990000   6.5000000 -39.7540000  -8.5110000   6.8120000 -40.4430000
  -7.8030000   6.3070000 -40.3550000 -13.0510000  16.3530000 -46.2940000
 -13.3120000  15.9780000 -45.4530000 -12.3200000  15.8080000 -46.5830000
 -12.9910000  16.2350000 -46.2240000 -14.8140000  14.5460000 -47.5790000
 -15.5370000  14.8490000 -48.1270000 -14.2190000  15.2960000 -47.5310000
 -14.8290000  14.6810000 -47.6430000 -18.2650000   4.7000000 -37.3890000
 -18.4630000   4.7810000 -38.3210000 -19.0580000   5.0030000 -36.9470000
 -18.3910000   4.7490000 -37.4520000 -12.1900000   7.2630000 -45.9660000
 -11.3090000   7.5550000 -45.7330000 -12.1040000   6.9290000 -46.8580000
 -12.0660000   7.2580000 -46.0510000 -18.2960000  13.7260000 -38.6320000
 -19.0580000  14.2940000 -38.7490000 -18.0910000  13.4160000 -39.5140000
 -18.3680000  13.7590000 -38.7600000 -16.2250000  15.0210000 -37.2950000
 -15.7420000  15.5820000 -37.9020000 -16.6680000  14.3850000 -37.8560000
 -16.2200000  15.0120000 -37.4440000 -12.5990000  16.7570000 -38.4970000
 -12.0250000  16.6700000 -37.7360000 -12.6410000  17.6990000 -38.6590000
 -12.5310000  16.8660000 -38.4210000  -7.8930000   3.0820000 -47.7820000
  -8.8450000   3.0190000 -47.7110000  -7.5650000   2.3540000 -47.2540000
  -7.9730000   2.9810000 -47.7050000  -2.7640000  11.0900000 -45.6600000
  -2.3240000  11.5970000 -44.9770000  -3.4360000  10.5930000 -45.1940000
  -2.7930000  11.0910000 -45.5130000  -1.5490000  12.8580000 -43.4320000
  -2.2630000  13.4630000 -43.6310000  -0.8330000  13.4210000 -43.1350000
  -1.5480000  13.0070000 -43.4190000 -12.2440000  10.6110000 -38.5960000
 -12.4010000   9.6670000 -38.6320000 -12.3340000  10.9030000 -39.5030000
 -12.2760000  10.5270000 -38.7170000  -2.7720000   5.2550000 -46.5910000
  -1.8600000   5.2660000 -46.2980000  -2.7720000   4.6700000 -47.3490000
  -2.6550000   5.1810000 -46.6500000  -4.9270000   9.5920000 -44.7400000
  -5.8020000   9.3350000 -45.0300000  -4.5750000   8.8090000 -44.3150000
  -4.9940000   9.4590000 -44.7230000 -15.2180000  16.5080000 -39.5820000
 -15.4700000  17.4120000 -39.3910000 -14.3140000  16.4430000 -39.2790000
 -15.1340000  16.6160000 -39.5190000 -18.0160000   1.4970000 -46.0270000
 -17.1830000   1.9510000 -46.1510000 -18.6040000   1.8960000 -46.6670000
 -17.9850000   1.6060000 -46.1240000 -16.9170000   0.6300000 -39.0150000
 -17.7500000   0.2030000 -38.8140000 -16.9510000   1.4570000 -38.5350000
 -17.0280000   0.6810000 -38.9280000 -10.5820000   6.0920000 -48.2770000
 -10.4960000   5.3080000 -47.7330000 -10.1420000   6.7790000 -47.7770000
 -10.5150000   6.0800000 -48.1440000  -1.9200000   3.7100000 -38.9370000
  -2.8190000   3.3820000 -38.9420000  -1.5950000   3.5330000 -39.8190000
  -1.9940000   3.6450000 -39.0500000  -7.4560000  14.1160000 -39.8070000
  -6.8740000  13.9520000 -39.0660000  -8.0490000  14.8020000 -39.4990000
  -7.4580000  14.1830000 -39.6730000 -11.1540000  14.5800000 -47.0680000
 -11.6340000  13.7720000 -46.8910000 -10.4240000  14.5660000 -46.4490000
 -11.1220000  14.4750000 -46.9660000   2.2580000   7.4970000 -48.6840000
   2.2720000   7.1840000 -47.7790000   2.2090000   8.4500000 -48.6070000
   2.2540000   7.5790000 -48.5580000 -11.6110000   7.0810000 -42.6810000
 -12.4560000   6.7610000 -42.3640000 -11.1380000   6.2900000 -42.9400000
 -11.6590000   6.9390000 -42.6730000 -14.6840000  12.2670000 -38.3470000
 -13.8730000  11.7790000 -38.4890000 -14.9530000  12.5440000 -39.2230000
 -14.6150000  12.2400000 -38.4780000  -1.8830000   2.9480000 -41.5060000
  -2.7490000   2.7840000 -41.8770000  -1.3010000   2.3560000 -41.9830000
  -1.9190000   2.8510000 -41.6150000 -12.4220000  11.3070000 -41.3190000
 -11.5420000  10.9340000 -41.3710000 -12.9600000  10.7260000 -41.8560000
 -12.3780000  11.1850000 -41.3940000  -3.4330000  15.0180000 -42.9620000
  -3.7840000  14.9150000 -42.0770000  -3.2850000  15.9600000 -43.0520000
  -3.4590000  15.1250000 -42.8600000  -1.2960000  16.7850000 -41.0830000
  -1.0980000  16.3900000 -40.2330000  -1.9670000  17.4400000 -40.8920000
  -1.3570000  16.8180000 -40.9500000  -5.9780000   9.5640000 -41.6700000
  -6.5350000   9.1700000 -42.3420000  -6.5540000  10.1740000 -41.2100000
  -6.1230000   9.5920000 -41.6970000  -2.0640000   8.8250000 -38.4760000
  -2.8870000   9.1650000 -38.8250000  -2.2080000   8.7690000 -37.5310000
  -2.1870000   8.8610000 -38.4000000 -15.1390000   9.1420000 -44.0440000
 -15.5160000   9.0150000 -43.1740000 -15.7020000   8.6310000 -44.6260000
 -15.2590000   9.0610000 -44.0070000  -6.1320000  10.6520000 -48.5890000
  -5.5870000  11.1530000 -47.9820000  -6.8260000  11.2590000 -48.8460000
  -6.1510000  10.7930000 -48.5440000 -18.1490000  12.2180000 -47.7680000
 -17.7550000  12.1480000 -48.6380000 -17.5370000  11.7630000 -47.1900000
 -18.0200000  12.1510000 -47.8060000 -14.9910000   3.6150000 -37.9530000
 -15.1440000   3.8950000 -38.8560000 -15.2280000   4.3750000 -37.4230000
 -15.0410000   3.7480000 -38.0010000  -7.4920000  17.7410000 -42.7990000
  -8.0410000  17.6720000 -43.5790000  -7.1280000  16.8640000 -42.6830000
  -7.5150000  17.6200000 -42.8840000 -13.0590000   7.7360000 -38.8480000
 -13.1730000   7.4520000 -39.7550000 -13.9490000   7.8390000 -38.5150000
 -13.1870000   7.7130000 -38.9220000 -14.0130000   6.0630000 -44.0020000
 -14.6030000   5.3240000 -44.1540000 -13.4010000   6.0350000 -44.7370000
 -14.0100000   5.9650000 -44.1160000 -12.6280000  12.2550000 -45.9700000
 -12.6680000  11.3000000 -46.0070000 -13.0840000  12.4830000 -45.1600000
 -12.6910000  12.1620000 -45.8710000  -4.6630000   8.9080000 -39.2880000
  -5.3540000   8.2680000 -39.1200000  -4.8710000   9.2640000 -40.1510000
  -4.7780000   8.8710000 -39.3770000  -8.7850000  14.8660000 -45.5600000
  -8.8490000  14.3460000 -44.7580000  -8.2400000  15.6150000 -45.3170000
  -8.7240000  14.8950000 -45.4260000 -16.9740000  17.9540000 -47.7810000
 -17.5150000  18.3770000 -47.1140000 -16.0740000  18.1510000 -47.5190000
 -16.9280000  18.0340000 -47.6620000 -15.4330000  12.0190000 -40.8610000
 -15.4700000  12.3360000 -41.7630000 -16.3040000  11.6600000 -40.6960000
 -15.5490000  12.0130000 -40.9550000 -11.5240000  13.7590000 -42.2860000
 -12.3070000  14.1650000 -42.6550000 -11.8120000  12.8880000 -42.0130000
 -11.6610000  13.6990000 -42.2980000 -17.7860000  15.7710000 -45.5430000
 -17.1310000  16.1320000 -46.1400000 -18.4650000  15.4160000 -46.1180000
 -17.7900000  15.7720000 -45.6930000  -2.4740000  -2.3370000 -46.2920000
  -2.3280000  -1.9320000 -45.4370000  -3.4190000  -2.2690000 -46.4310000
  -2.5760000  -2.2770000 -46.2000000 -12.4980000   9.7160000 -43.8070000
 -12.1730000   8.9130000 -43.4000000 -13.3670000   9.4840000 -44.1330000
 -12.5680000   9.5840000 -43.7970000 -16.8820000  10.6500000 -37.8380000
 -16.0790000  11.1600000 -37.9470000 -17.3320000  11.0680000 -37.1040000
 -16.8380000  10.7690000 -37.7580000  -1.6980000  18.5700000 -46.5100000
  -1.8450000  17.6270000 -46.4280000  -1.0440000  18.7680000 -45.8390000
  -1.6330000  18.4740000 -46.4140000  -0.3650000  14.8480000 -47.7240000
  -1.2090000  15.2610000 -47.5400000  -0.4970000  13.9260000 -47.5060000
  -0.4900000  14.7830000 -47.6730000 -18.4600000   5.3370000 -45.6830000
 -17.6610000   4.9870000 -46.0780000 -18.4790000   4.9570000 -44.8050000
 -18.3600000   5.2430000 -45.6210000  -9.0650000   8.3940000 -47.9550000
  -9.4720000   9.1540000 -48.3710000  -8.2030000   8.3290000 -48.3650000
  -9.0070000   8.4830000 -48.0610000 -16.3740000  10.1240000 -46.9700000
 -15.4170000  10.1080000 -46.9890000 -16.6190000   9.3100000 -46.5300000
 -16.2840000  10.0180000 -46.9160000  -6.0710000   4.1340000 -44.4310000
  -6.5250000   4.5760000 -45.1490000  -6.6130000   4.3090000 -43.6620000
  -6.1980000   4.2130000 -44.4250000  -0.9060000   9.0620000 -45.4870000
  -1.2950000   8.5880000 -44.7510000  -1.4410000   9.8510000 -45.5730000
  -1.0240000   9.1020000 -45.4040000  -7.5320000   5.6100000 -46.6210000
  -6.9060000   6.0600000 -47.1880000  -7.6740000   4.7630000 -47.0450000
  -7.4700000   5.5590000 -46.7480000  -8.9970000  13.4870000 -43.1220000
  -8.6040000  14.3080000 -42.8260000  -9.9100000  13.5420000 -42.8400000
  -9.0630000  13.5990000 -43.0480000  -3.7730000   6.7710000 -43.9730000
  -4.0380000   6.1190000 -43.3230000  -3.5540000   6.2580000 -44.7510000
  -3.7790000   6.6220000 -43.9890000 -11.3710000   3.4240000 -40.5080000
 -10.4490000   3.5000000 -40.2640000 -11.8230000   4.0410000 -39.9330000
 -11.3110000   3.5120000 -40.4040000 -14.3800000   0.4340000 -47.5890000
 -14.2090000   1.3550000 -47.3900000 -13.8140000  -0.0500000 -46.9880000
 -14.2860000   0.4900000 -47.4870000 -13.5260000   9.5610000 -47.1960000
 -13.2690000   9.1430000 -48.0180000 -13.4420000   8.8690000 -46.5400000
 -13.4820000   9.4190000 -47.2170000  -6.2140000  14.0160000 -46.7370000
  -6.1160000  14.2630000 -47.6570000  -7.0680000  14.3660000 -46.4850000
  -6.3110000  14.0920000 -46.8220000  -2.7200000   0.3000000 -37.7730000
  -3.2610000  -0.2150000 -37.1750000  -3.1840000   1.1330000 -37.8600000
  -2.8480000   0.3410000 -37.7070000  -5.1260000  16.4420000 -46.1980000
  -5.6700000  17.0420000 -46.7090000  -5.5170000  15.5810000 -46.3440000
  -5.2450000  16.4090000 -46.2820000  -1.3510000   7.8510000 -42.5750000
  -2.2470000   7.5260000 -42.6620000  -1.4510000   8.7460000 -42.2500000
  -1.4790000   7.9240000 -42.5440000 -11.0340000  18.8100000 -47.2250000
 -11.0680000  18.1230000 -46.5600000 -10.5580000  18.4150000 -47.9550000
 -10.9780000  18.6720000 -47.2330000  -9.5230000   6.9190000 -45.4210000
  -9.9720000   6.1650000 -45.0390000  -8.8010000   6.5390000 -45.9210000
  -9.4880000   6.7740000 -45.4360000  -7.9880000  11.0430000 -43.7090000
  -8.2640000  11.8670000 -43.3070000  -7.0370000  11.0300000 -43.6000000
  -7.9010000  11.1470000 -43.6440000  -8.6320000  18.2660000 -45.4600000
  -7.8420000  18.8040000 -45.5140000  -9.2320000  18.6580000 -46.0940000
  -8.6080000  18.3850000 -45.5480000  -8.8490000   4.0000000 -39.0190000
  -9.3150000   4.5980000 -38.4350000  -8.2540000   4.5640000 -39.5140000
  -8.8330000   4.1480000 -39.0080000 -16.6020000   8.8910000 -41.5720000
 -17.2810000   9.5300000 -41.3520000 -17.0120000   8.0420000 -41.4090000
 -16.7420000   8.8640000 -41.5230000 -18.4540000   1.8000000 -42.9900000
 -17.5920000   1.7610000 -42.5760000 -18.2680000   1.9500000 -43.9170000
 -18.3200000   1.8140000 -43.0560000  -7.5370000   9.3330000 -45.6230000
  -7.8050000   9.9760000 -44.9650000  -8.3360000   9.1510000 -46.1190000
  -7.6740000   9.3920000 -45.6030000 -18.9950000   6.9710000 -39.0030000
 -19.5950000   7.7040000 -38.8620000 -18.4480000   6.9540000 -38.2170000
 -19.0020000   7.0630000 -38.8840000  -7.5600000   7.6670000 -43.0610000
  -7.7230000   7.9760000 -43.9520000  -8.4210000   7.4030000 -42.7380000
  -7.6910000   7.6730000 -43.1330000  -7.3380000   1.8880000 -38.9230000
  -7.3410000   1.5980000 -39.8350000  -8.0100000   2.5690000 -38.8860000
  -7.4250000   1.9380000 -39.0350000  -7.6280000  11.3300000 -40.5250000
  -8.4460000  11.1740000 -40.9960000  -7.5800000  12.2820000 -40.4360000
  -7.7260000  11.4320000 -40.5740000  -3.2780000   6.0260000 -39.2940000
  -2.5650000   5.3940000 -39.1990000  -2.8380000   6.8630000 -39.4400000
  -3.1310000   6.0520000 -39.3010000 -17.2500000   7.8080000 -45.7720000
 -18.0280000   8.3140000 -45.5410000 -17.5120000   6.8950000 -45.6490000
 -17.3820000   7.7560000 -45.7270000  -1.8050000  17.3030000 -43.7250000
  -1.5230000  17.2070000 -42.8150000  -2.5860000  17.8540000 -43.6760000
  -1.8690000  17.3610000 -43.6020000 -14.1530000  11.9650000 -48.6660000
 -14.2400000  12.7450000 -48.1170000 -14.0810000  11.2410000 -48.0430000
 -14.1550000  11.9720000 -48.5160000 -14.0510000   7.1060000 -41.4820000
 -14.1420000   6.9860000 -42.4270000 -14.7750000   7.6840000 -41.2440000
 -14.1550000   7.1650000 -41.5730000 -17.7810000  17.1700000 -43.1390000
 -18.0750000  16.8970000 -44.0090000 -18.0900000  18.0720000 -43.0550000
 -17.8590000  17.2500000 -43.2400000 -15.4090000   4.2330000 -40.5680000
 -14.6180000   4.2660000 -41.1050000 -15.7690000   5.1190000 -40.6160000
 -15.3540000   4.3500000 -40.6430000  -4.2530000   2.4860000 -39.0990000
  -4.1920000   2.1390000 -39.9890000  -5.1930000   2.5340000 -38.9250000
  -4.3660000   2.4480000 -39.1910000 -13.8660000  14.5340000 -43.7410000
 -14.4360000  15.2210000 -43.3940000 -14.3180000  13.7180000 -43.5270000
 -13.9970000  14.5180000 -43.6690000  -4.1360000   1.4590000 -46.7980000
  -3.2650000   1.0660000 -46.7410000  -4.2350000   1.6900000 -47.7210000
  -4.0370000   1.4380000 -46.9090000  -7.2280000   1.7260000 -41.6640000
  -7.4880000   0.9500000 -42.1610000  -6.2720000   1.7310000 -41.7120000
  -7.1390000   1.6270000 -41.7330000 -10.3080000   3.8740000 -46.3830000
 -11.1590000   3.4430000 -46.4700000 -10.2090000   4.0210000 -45.4420000
 -10.4050000   3.8380000 -46.2740000 -11.6770000   0.8950000 -39.2320000
 -12.2300000   1.2060000 -38.5160000 -11.6160000   1.6410000 -39.8290000
 -11.7400000   1.0300000 -39.2170000  -7.0080000  15.0790000 -42.3420000
  -7.2110000  14.7690000 -41.4600000  -6.4940000  14.3710000 -42.7320000
  -6.9680000  14.9480000 -42.2790000  -4.3630000  12.6810000 -39.6950000
  -5.0030000  12.1480000 -39.2230000  -4.4010000  12.3580000 -40.5960000
  -4.4500000  12.5710000 -39.7500000 -10.5960000  15.0490000 -39.5600000
 -10.9830000  14.6840000 -40.3560000 -11.2440000  15.6780000 -39.2450000
 -10.7290000  15.0820000 -39.6210000 -18.2360000  14.4030000 -42.1900000
 -18.6180000  15.2460000 -41.9470000 -17.4120000  14.6290000 -42.6220000
 -18.1800000  14.5400000 -42.2150000 -16.3340000   4.0290000 -46.7690000
 -16.4270000   3.5620000 -47.5990000 -15.5100000   3.7060000 -46.4040000
 -16.2400000   3.9280000 -46.8280000  -1.6960000  10.5180000 -41.8780000
  -2.5870000  10.7340000 -41.6000000  -1.4190000  11.2710000 -42.4000000
  -1.7750000  10.6420000 -41.9090000 -14.1700000   3.2870000 -45.5130000
 -13.7180000   2.7080000 -44.8990000 -13.6070000   3.3020000 -46.2860000
 -14.0400000   3.2150000 -45.5330000 -17.5880000   6.3870000 -41.2440000
 -18.1550000   6.7480000 -41.9260000 -18.0850000   6.5030000 -40.4340000
 -17.7240000   6.4480000 -41.2280000  -6.3420000  20.0190000 -45.3270000
  -5.5670000  19.8630000 -45.8660000  -6.3730000  20.9700000 -45.2210000
  -6.2470000  20.1210000 -45.3820000  -4.5790000  15.8510000 -39.7910000
  -4.3090000  14.9470000 -39.6310000  -5.5310000  15.8380000 -39.6900000
  -4.6660000  15.7340000 -39.7570000  -4.2690000  11.5570000 -42.0940000
  -4.8790000  10.8210000 -42.0380000  -4.7010000  12.1810000 -42.6770000
  -4.4020000  11.5420000 -42.1610000 -15.1710000  12.1450000 -43.6690000
 -15.6320000  12.4890000 -44.4340000 -15.0900000  11.2070000 -43.8400000
 -15.2200000  12.0690000 -43.7890000 -12.1350000   5.2450000 -38.5410000
 -12.9000000   4.8480000 -38.1230000 -12.3890000   6.1560000 -38.6890000
 -12.2660000   5.3110000 -38.5060000  -5.4140000  13.4160000 -44.0750000
  -5.5870000  13.3390000 -45.0130000  -4.6310000  13.9630000 -44.0200000
  -5.3360000  13.4760000 -44.1880000  -3.5680000  18.3670000 -40.4650000
  -3.1590000  18.5390000 -39.6170000  -3.8370000  17.4500000 -40.4200000
  -3.5500000  18.2720000 -40.3510000  -4.5540000   3.0290000 -42.1970000
  -4.8410000   3.8550000 -41.8060000  -4.7770000   3.1130000 -43.1240000
  -4.6200000   3.1460000 -42.2650000  -1.0610000  16.0140000 -38.4720000
  -1.8330000  16.0450000 -37.9080000  -0.4440000  16.6240000 -38.0660000
  -1.0810000  16.0960000 -38.3470000  -6.1600000  11.1410000 -38.4030000
  -6.9710000  11.1790000 -38.9100000  -5.7960000  10.2780000 -38.5980000
  -6.2170000  11.0360000 -38.4930000 -12.8200000   3.1840000 -47.8450000
 -12.9980000   3.7740000 -48.5770000 -12.3350000   2.4570000 -48.2350000
 -12.7810000   3.1670000 -47.9880000 -16.5350000  13.2810000 -45.4630000
 -16.2750000  13.9740000 -46.0710000 -17.4060000  13.5400000 -45.1640000
 -16.6120000  13.4030000 -45.5030000  -2.8460000  10.8710000 -48.4820000
  -1.9930000  10.5300000 -48.7520000  -2.8240000  10.8420000 -47.5260000
  -2.7340000  10.8230000 -48.3950000  -9.9160000   7.7820000 -40.5770000
 -10.6700000   7.4520000 -41.0650000 -10.1170000   7.5840000 -39.6630000
 -10.0380000   7.7140000 -40.5230000  -6.3660000   7.1050000 -38.5080000
  -7.1500000   7.0660000 -37.9600000  -5.7290000   6.5540000 -38.0540000
  -6.3850000   7.0300000 -38.3800000  -0.7700000   0.8970000 -48.9740000
  -1.3660000   0.5470000 -48.3120000  -0.0520000   0.2650000 -49.0090000
  -0.7540000   0.7720000 -48.8940000  -4.9710000   5.6280000 -41.3050000
  -4.2780000   5.8220000 -40.6730000  -5.6070000   6.3340000 -41.1870000
  -4.9640000   5.7430000 -41.2090000  -4.5060000  17.8980000 -43.8300000
  -4.9790000  18.7310000 -43.8370000  -5.0370000  17.3170000 -44.3740000
  -4.6350000  17.9300000 -43.9000000 -10.2300000  -4.6680000  44.7380000
 -10.4040000  -4.5070000  45.6650000 -10.9950000  -5.1540000  44.4320000
 -10.3500000  -4.7100000  44.8180000 -13.6590000  -9.7710000  40.0680000
 -13.8140000  -9.3140000  40.8950000 -12.9470000 -10.3810000  40.2600000
 -13.5880000  -9.7910000  40.1980000  -3.4980000  -3.6120000  38.2550000
  -4.3600000  -3.2840000  37.9980000  -3.5940000  -4.5640000  38.2530000
  -3.6210000  -3.6920000  38.2220000 -16.7720000  -3.5150000  45.0320000
 -16.7350000  -2.6220000  44.6870000 -17.5710000  -3.5360000  45.5580000
 -16.8690000  -3.4030000  45.0550000 -12.0610000  -1.7250000  41.7200000
 -12.8600000  -2.2520000  41.7300000 -11.7170000  -1.8280000  40.8330000
 -12.1190000  -1.8060000  41.6080000  -8.1530000  -6.7400000  44.1870000
  -8.5790000  -7.3470000  43.5830000  -8.8160000  -6.0730000  44.3650000
  -8.2920000  -6.7320000  44.1330000  -2.4010000 -16.1080000  43.4400000
  -2.3330000 -17.0550000  43.3170000  -1.5320000 -15.8430000  43.7420000
  -2.2810000 -16.1950000  43.4640000  -1.2820000 -11.8170000  45.2820000
  -2.0610000 -11.7070000  45.8270000  -0.9380000 -10.9310000  45.1720000
  -1.3380000 -11.6900000  45.3370000 -10.1860000 -15.6890000  39.4300000
 -10.4520000 -16.1520000  40.2240000 -10.1700000 -16.3660000  38.7530000
 -10.2180000 -15.8350000  39.4450000  -7.0750000  -7.5490000  39.7320000
  -6.3050000  -7.5280000  40.2990000  -6.7560000  -7.9160000  38.9090000
  -6.9360000  -7.5930000  39.6990000  -1.3390000  -7.9120000  41.4630000
  -1.7050000  -7.2710000  42.0730000  -2.1040000  -8.3340000  41.0700000
  -1.4840000  -7.8840000  41.4900000  -3.3570000  -6.3120000  38.4800000
  -3.3150000  -6.4460000  37.5320000  -2.4710000  -6.0450000  38.7220000
  -3.2380000  -6.2950000  38.3890000  -3.0140000 -15.8820000  40.5670000
  -2.8820000 -16.0260000  41.5050000  -3.8820000 -15.4830000  40.5070000
  -3.1080000 -15.8500000  40.6800000  -6.3640000  -4.1450000  45.0680000
  -6.1880000  -3.2950000  44.6650000  -7.1230000  -4.4820000  44.5940000
  -6.4380000  -4.0790000  44.9570000  -6.5740000  -0.8200000  46.3200000
  -5.9880000  -0.0830000  46.1450000  -7.3560000  -0.6340000  45.8020000
  -6.5990000  -0.7020000  46.2320000 -14.2520000 -13.5650000  44.8400000
 -14.6590000 -13.5660000  43.9730000 -14.7380000 -12.9020000  45.3320000
 -14.3660000 -13.4800000  44.7930000 -14.8250000 -16.3780000  43.5580000
 -15.5840000 -16.3910000  44.1430000 -14.2930000 -17.1220000  43.8390000
 -14.8540000 -16.4750000  43.6690000 -10.1650000 -12.1790000  43.3890000
 -10.9900000 -12.1970000  42.9040000 -10.4160000 -12.3650000  44.2940000
 -10.3030000 -12.2050000  43.4430000 -13.0510000  -2.5140000  48.0070000
 -13.3120000  -2.8890000  48.8480000 -12.3200000  -3.0590000  47.7180000
 -12.9910000  -2.6320000  48.0770000 -14.8140000  -4.3210000  46.7220000
 -15.5370000  -4.0180000  46.1730000 -14.2190000  -3.5710000  46.7690000
 -14.8290000  -4.1860000  46.6570000 -15.3400000 -10.5570000  38.0590000
 -15.9430000  -9.8200000  37.9640000 -14.7110000 -10.2670000  38.7200000
 -15.3370000 -10.4260000  38.1320000 -10.9130000  -2.0950000  39.3520000
 -10.4540000  -2.9170000  39.5240000 -10.2150000  -1.4550000  39.2140000
 -10.7650000  -2.1180000  39.3570000 -12.1900000 -11.6040000  48.3340000
 -11.3090000 -11.3120000  48.5670000 -12.1040000 -11.9380000  47.4420000
 -12.0660000 -11.6090000  48.2500000  -7.8930000 -15.7850000  46.5180000
  -8.8450000 -15.8480000  46.5890000  -7.5650000 -16.5130000  47.0470000
  -7.9730000 -15.8860000  46.5950000  -2.7640000  -7.7770000  48.6400000
  -2.3240000  -7.2700000  49.3230000  -3.4360000  -8.2740000  49.1070000
  -2.7930000  -7.7760000  48.7870000  -8.0370000  -4.9480000  39.8070000
  -7.7330000  -5.8410000  39.9630000  -7.5100000  -4.4080000  40.3950000
  -7.9310000  -4.9930000  39.9010000  -5.4140000 -14.4600000  40.3820000
  -5.3100000 -14.1160000  41.2690000  -5.5440000 -13.6840000  39.8380000
  -5.4170000 -14.3170000  40.4270000  -2.7720000 -13.6120000  47.7090000
  -1.8600000 -13.6010000  48.0030000  -2.7720000 -14.1970000  46.9520000
  -2.6550000 -13.6860000  47.6500000 -13.1850000 -17.2860000  38.3690000
 -12.8430000 -17.2770000  39.2630000 -13.6700000 -16.4640000  38.2910000
 -13.2030000 -17.1790000  38.4730000 -18.0160000 -17.3700000  48.2730000
 -17.1830000 -16.9160000  48.1500000 -18.6040000 -16.9710000  47.6330000
 -17.9850000 -17.2610000  48.1770000 -10.5820000 -12.7750000  46.0230000
 -10.4960000 -13.5590000  46.5670000 -10.1420000 -12.0880000  46.5230000
 -10.5150000 -12.7870000  46.1570000  -1.9040000  -4.0350000  41.3600000
  -1.7830000  -3.1600000  40.9920000  -1.6950000  -4.6290000  40.6380000
  -1.8620000  -3.9990000  41.2190000  -3.4860000 -18.6360000  40.2380000
  -3.3580000 -17.7210000  39.9860000  -4.4350000 -18.7310000  40.3220000
  -3.5910000 -18.5310000  40.2170000 -17.5070000  -0.5530000  42.5430000
 -18.2890000  -0.6840000  42.0050000 -17.5370000   0.3720000  42.7870000
 -17.6110000  -0.4510000  42.5050000 -11.1540000  -4.2870000  47.2320000
 -11.6340000  -5.0950000  47.4090000 -10.4240000  -4.3010000  47.8520000
 -11.1220000  -4.3920000  47.3340000  -0.3110000 -17.2980000  38.2380000
  -0.4870000 -16.4570000  37.8170000  -1.1200000 -17.7970000  38.1240000
  -0.4370000 -17.2540000  38.1710000   2.2580000 -11.3700000  45.6170000
   2.2720000 -11.6830000  46.5220000   2.2090000 -10.4170000  45.6930000
   2.2540000 -11.2880000  45.7430000  -8.3490000 -13.4340000  39.5000000
  -8.9750000 -14.1580000  39.5230000  -8.1310000 -13.2750000  40.4170000
  -8.4010000 -13.5060000  39.6190000 -15.7760000  -2.0280000  41.0770000
 -16.3580000  -1.5300000  41.6500000 -15.5470000  -1.4170000  40.3760000
 -15.8210000  -1.8860000  41.0600000  -2.1770000 -10.4690000  39.5000000
  -2.6340000 -10.7100000  40.3070000  -1.2510000 -10.6090000  39.6990000
  -2.1170000 -10.5180000  39.6300000  -4.0520000 -14.7520000  45.0890000
  -3.3560000 -15.1380000  44.5550000  -4.6620000 -15.4740000  45.2430000
  -4.0410000 -14.8940000  45.0400000  -8.1510000 -13.3160000  42.1630000
  -8.9740000 -13.0330000  42.5590000  -7.4730000 -12.9300000  42.7180000
  -8.1690000 -13.2310000  42.2850000  -6.1320000  -8.2150000  45.7120000
  -5.5870000  -7.7140000  46.3180000  -6.8260000  -7.6080000  45.4550000
  -6.1510000  -8.0740000  45.7570000 -18.1490000  -6.6490000  46.5320000
 -17.7550000  -6.7190000  45.6620000 -17.5370000  -7.1040000  47.1100000
 -18.0200000  -6.7160000  46.4940000  -3.4280000 -10.9690000  41.9040000
  -3.4710000 -10.3500000  42.6350000  -3.7940000 -11.7800000  42.2570000
  -3.4800000 -10.9930000  42.0430000  -8.6780000 -10.1050000  42.3830000
  -9.3500000 -10.7860000  42.4130000  -8.5990000  -9.8880000  41.4550000
  -8.7540000 -10.1640000  42.2680000 -12.6280000  -6.6120000  48.3300000
 -12.6680000  -7.5670000  48.2930000 -13.0840000  -6.3840000  49.1400000
 -12.6910000  -6.7050000  48.4300000 -19.0450000 -10.8570000  42.1500000
 -18.3800000 -10.2570000  42.4880000 -19.8770000 -10.4230000  42.3390000
 -19.0660000 -10.7250000  42.2180000 -16.7130000  -6.4120000  44.3520000
 -16.0340000  -6.6920000  44.9650000 -16.6140000  -5.4620000  44.3030000
 -16.6130000  -6.3260000  44.4250000 -11.2980000  -7.6760000  39.4390000
 -11.6810000  -7.9850000  38.6170000 -11.0590000  -6.7650000  39.2630000
 -11.3160000  -7.5990000  39.3120000 -17.0420000 -16.2210000  45.1170000
 -17.2800000 -17.0400000  44.6830000 -17.8030000 -15.6530000  44.9890000
 -17.1700000 -16.2530000  45.0440000 -12.4710000 -17.4060000  41.1200000
 -12.2260000 -18.2810000  41.4220000 -12.6860000 -16.9290000  41.9220000
 -12.4670000 -17.4570000  41.2610000  -7.2390000 -15.6570000  43.6580000
  -7.5330000 -14.9420000  43.0940000  -7.5100000 -15.3960000  44.5380000
  -7.3110000 -15.5320000  43.6980000  -3.2860000  -5.1050000  45.3600000
  -4.2010000  -5.0950000  45.0770000  -3.1640000  -5.9730000  45.7440000
  -3.3880000  -5.2150000  45.3730000 -15.6340000 -13.1410000  39.1540000
 -16.5580000 -13.3840000  39.1920000 -15.6370000 -12.2210000  38.8890000
 -15.7510000 -13.0540000  39.1250000 -13.6640000  -8.7880000  42.4430000
 -12.8410000  -8.3020000  42.4050000 -13.6130000  -9.2830000  43.2600000
 -13.5520000  -8.7890000  42.5430000 -16.9740000  -0.9130000  46.5190000
 -17.5150000  -0.4900000  47.1870000 -16.0740000  -0.7160000  46.7820000
 -16.9280000  -0.8330000  46.6380000 -11.3690000  -7.1510000  42.4450000
 -11.8920000  -6.4480000  42.8320000 -11.3570000  -6.9550000  41.5100000
 -11.4340000  -7.0360000  42.3750000  -4.3260000 -12.2840000  38.6100000
  -3.8480000 -12.6370000  37.8610000  -3.8240000 -11.5120000  38.8720000
  -4.2010000 -12.2300000  38.5470000 -17.7860000  -3.0960000  48.7570000
 -17.1310000  -2.7350000  48.1600000 -18.4650000  -3.4510000  48.1830000
 -17.7900000  -3.0950000  48.6070000  -2.4740000 -21.2050000  48.0080000
  -2.3280000 -20.7990000  48.8630000  -3.4190000 -21.1360000  47.8690000
  -2.5760000 -21.1440000  48.1010000  -6.3860000 -11.0690000  45.7230000
  -5.8880000 -11.2760000  44.9320000  -6.2020000 -10.1440000  45.8870000
  -6.2990000 -10.9770000  45.6420000 -11.7610000 -12.3230000  39.4640000
 -12.2420000 -13.1400000  39.3320000 -11.3270000 -12.1640000  38.6250000
 -11.7670000 -12.4070000  39.3390000 -17.7970000  -7.2860000  39.9210000
 -17.0300000  -7.6090000  40.3970000 -18.5400000  -7.5250000  40.4760000
 -17.7950000  -7.3580000  40.0530000  -1.6980000  -0.2970000  47.7900000
  -1.8450000  -1.2400000  47.8720000  -1.0440000  -0.0990000  48.4620000
  -1.6330000  -0.3930000  47.8870000  -0.3650000  -4.0190000  46.5770000
  -1.2090000  -3.6060000  46.7600000  -0.4970000  -4.9410000  46.7940000
  -0.4900000  -4.0840000  46.6280000  -9.0650000 -10.4730000  46.3450000
  -9.4720000  -9.7130000  45.9300000  -8.2030000 -10.5380000  45.9350000
  -9.0070000 -10.3840000  46.2390000  -4.5280000  -9.2340000  43.8270000
  -3.8540000  -8.8220000  44.3680000  -5.3380000  -8.7880000  44.0730000
  -4.5450000  -9.1240000  43.9280000 -16.3740000  -8.7430000  47.3300000
 -15.4170000  -8.7590000  47.3120000 -16.6190000  -9.5570000  47.7700000
 -16.2840000  -8.8490000  47.3850000  -7.5320000 -13.2570000  47.6800000
  -6.9060000 -12.8070000  47.1130000  -7.6740000 -14.1040000  47.2550000
  -7.4700000 -13.3080000  47.5530000  -7.5080000 -16.5120000  40.4360000
  -8.2670000 -16.2640000  39.9070000  -6.9530000 -15.7320000  40.4370000
  -7.5340000 -16.3800000  40.3680000 -14.9740000 -13.2190000  42.1530000
 -15.0640000 -13.4900000  41.2390000 -15.8710000 -13.0620000  42.4450000
 -15.1000000 -13.2330000  42.0730000  -5.3860000 -17.3280000  44.9480000
  -6.0480000 -16.9220000  44.3880000  -4.6910000 -17.5910000  44.3450000
  -5.3820000 -17.3090000  44.8000000 -13.0270000 -10.3030000  44.5530000
 -12.8390000 -11.0550000  43.9900000 -12.1710000  -9.9120000  44.7230000
 -12.8940000 -10.3490000  44.5030000 -14.3800000 -18.4330000  46.7120000
 -14.2090000 -17.5120000  46.9100000 -13.8140000 -18.9170000  47.3120000
 -14.2860000 -18.3770000  46.8140000 -10.5770000  -5.0960000  38.8360000
  -9.7330000  -5.1340000  39.2870000 -10.3540000  -4.8910000  37.9280000
 -10.4400000  -5.0750000  38.7780000 -13.5260000  -9.3060000  47.1050000
 -13.2690000  -9.7240000  46.2820000 -13.4420000  -9.9980000  47.7600000
 -13.4820000  -9.4480000  47.0830000  -6.2140000  -4.8510000  47.5640000
  -6.1160000  -4.6040000  46.6430000  -7.0680000  -4.5010000  47.8150000
  -6.3110000  -4.7750000  47.4780000  -8.8240000  -0.4370000  44.9030000
  -9.0090000  -1.2640000  44.4570000  -9.1360000   0.2360000  44.2970000
  -8.8880000  -0.4570000  44.7670000  -7.2360000  -1.2020000  37.9920000
  -7.0780000  -0.3630000  37.5590000  -6.9740000  -1.0550000  38.9010000
  -7.1820000  -1.0760000  38.0530000  -5.1260000  -2.4250000  48.1020000
  -5.6700000  -1.8250000  47.5920000  -5.5170000  -3.2860000  47.9570000
  -5.2450000  -2.4580000  48.0180000 -11.0340000  -0.0570000  47.0760000
 -11.0680000  -0.7440000  47.7400000 -10.5580000  -0.4520000  46.3450000
 -10.9780000  -0.1950000  47.0680000  -9.1550000  -9.3290000  39.7630000
  -8.4250000  -8.7090000  39.7530000  -9.9370000  -8.7780000  39.7320000
  -9.1620000  -9.1790000  39.7570000  -9.5230000 -11.9480000  48.8800000
  -9.9720000 -12.7020000  49.2620000  -8.8010000 -12.3280000  48.3800000
  -9.4880000 -12.0930000  48.8640000 -12.5000000 -15.2110000  42.8630000
 -12.6480000 -14.2680000  42.7840000 -13.2920000 -15.5430000  43.2870000
 -12.6200000 -15.1330000  42.9070000  -8.6320000  -0.6010000  48.8400000
  -7.8420000  -0.0630000  48.7870000  -9.2320000  -0.2090000  48.2070000
  -8.6080000  -0.4820000  48.7530000 -13.2440000 -14.7220000  39.4570000
 -14.1610000 -14.9370000  39.6230000 -12.7690000 -15.1100000  40.1920000
 -13.3010000 -14.7990000  39.5720000  -5.6420000  -1.9710000  43.6930000
  -6.0100000  -1.3900000  44.3570000  -4.7510000  -1.6480000  43.5580000
  -5.5750000  -1.8550000  43.7600000  -7.5370000  -9.5340000  48.6780000
  -7.8050000  -8.8910000  49.3350000  -8.3360000  -9.7160000  48.1820000
  -7.6740000  -9.4750000  48.6980000 -17.6400000 -12.9950000  43.3400000
 -17.2390000 -12.4100000  43.9850000 -18.1030000 -12.4100000  42.7420000
 -17.6470000 -12.8450000  43.3470000 -15.6790000 -18.3160000  39.3850000
 -15.6780000 -17.5740000  39.9890000 -15.1750000 -18.0120000  38.6320000
 -15.6140000 -18.1820000  39.3670000 -14.7630000  -6.2800000  39.6690000
 -14.6770000  -6.3310000  38.7170000 -15.3160000  -5.5120000  39.8180000
 -14.8230000  -6.1880000  39.5670000 -17.2500000 -11.0590000  48.5280000
 -18.0280000 -10.5530000  48.7600000 -17.5120000 -11.9720000  48.6520000
 -17.3820000 -11.1110000  48.5730000 -14.1530000  -6.9020000  45.6350000
 -14.2400000  -6.1220000  46.1830000 -14.0810000  -7.6260000  46.2570000
 -14.1550000  -6.8950000  45.7840000 -18.5220000 -15.8180000  40.8390000
 -18.5790000 -16.0720000  39.9180000 -19.0700000 -15.0360000  40.9070000
 -18.6000000 -15.7500000  40.7300000 -12.9690000 -18.2450000  44.2700000
 -13.3740000 -18.5760000  45.0730000 -12.8620000 -19.0190000  43.7180000
 -13.0070000 -18.3860000  44.3030000  -1.8840000  -2.7860000  44.0100000
  -1.8140000  -3.4150000  44.7270000  -1.8180000  -3.3180000  43.2180000
  -1.8670000  -2.9340000  44.0000000 -12.4260000 -12.1990000  42.1570000
 -12.0530000 -12.2640000  41.2780000 -13.3310000 -12.4950000  42.0550000
 -12.4940000 -12.2460000  42.0320000 -12.7270000  -5.0420000  40.5910000
 -13.4590000  -5.5310000  40.2140000 -12.0670000  -5.0290000  39.8980000
 -12.7370000  -5.1030000  40.4550000 -10.2810000 -15.3020000  44.5410000
 -11.1330000 -15.4400000  44.1300000 -10.2310000 -14.3550000  44.6780000
 -10.3830000 -15.1980000  44.5070000  -9.2360000 -11.6310000  37.7800000
  -9.2550000 -10.9810000  38.4820000  -8.8810000 -12.4190000  38.1920000
  -9.1930000 -11.6480000  37.9220000  -7.2740000  -2.7520000  41.6500000
  -7.9590000  -2.8240000  42.3150000  -6.4760000  -2.5740000  42.1470000
  -7.2600000  -2.7390000  41.8000000  -9.5630000 -17.1280000  42.6320000
  -9.7880000 -16.3430000  43.1320000  -8.6640000 -16.9760000  42.3400000
  -9.4760000 -17.0080000  42.6590000  -4.1360000 -17.4080000  47.5030000
  -3.2650000 -17.8010000  47.5590000  -4.2350000 -17.1770000  46.5800000
  -4.0370000 -17.4290000  47.3920000  -4.1110000 -13.5430000  42.7500000
  -4.3320000 -13.7930000  43.6480000  -3.2950000 -14.0090000  42.5680000
  -4.0350000 -13.6350000  42.8430000  -6.2650000  -3.7800000  37.8970000
  -6.6650000  -2.9120000  37.9470000  -6.7410000  -4.3010000  38.5440000
  -6.3770000  -3.7350000  37.9860000 -10.3080000 -14.9930000  47.9180000
 -11.1590000 -15.4240000  47.8300000 -10.2090000 -14.8460000  48.8580000
 -10.4050000 -15.0290000  48.0270000 -12.8860000  -5.4590000  43.7530000
 -13.5220000  -5.9140000  44.3050000 -13.3740000  -4.7250000  43.3800000
 -13.0290000  -5.4230000  43.7770000  -1.4200000 -13.5190000  40.5870000
  -2.2430000 -14.0060000  40.5380000  -1.6720000 -12.6550000  40.9150000
  -1.5570000 -13.4710000  40.6220000 -16.3340000 -14.8380000  47.5320000
 -16.4270000 -15.3050000  46.7020000 -15.5100000 -15.1610000  47.8970000
 -16.2400000 -14.9390000  47.4730000  -2.6280000  -6.3270000  42.8550000
  -2.6060000  -6.2110000  43.8050000  -2.4550000  -5.4540000  42.5030000
  -2.6030000  -6.2000000  42.9320000  -3.2530000  -0.3870000  43.1620000
  -3.5170000  -0.4220000  42.2430000  -2.6310000  -1.1080000  43.2600000
  -3.2070000  -0.4840000  43.0570000  -6.0790000  -0.3910000  40.6720000
  -6.5950000  -1.0760000  41.0980000  -6.5620000   0.4160000  40.8460000
  -6.2070000  -0.3760000  40.7500000  -6.3420000   1.1520000  48.9730000
  -5.5670000   0.9960000  48.4340000  -6.3730000   2.1030000  49.0800000
  -6.2470000   1.2540000  48.9180000  -9.7720000  -2.4360000  43.2020000
 -10.0100000  -3.2490000  43.6470000 -10.5770000  -2.1580000  42.7650000
  -9.9050000  -2.5040000  43.2030000 -16.9750000  -9.0810000  42.8170000
 -16.0190000  -9.0490000  42.8430000 -17.2460000  -8.1640000  42.8550000
 -16.8870000  -8.9600000  42.8250000 -15.6160000 -15.7910000  40.7870000
 -15.3090000 -15.7260000  41.6920000 -16.5350000 -16.0490000  40.8670000
 -15.6940000 -15.8160000  40.9130000  -6.3070000 -11.5300000  43.1720000
  -5.6870000 -11.0860000  42.5930000  -7.1170000 -11.0260000  43.0870000
  -6.3310000 -11.4080000  43.0870000 -19.6870000  -5.4780000  39.1320000
 -19.0600000  -6.0010000  39.6320000 -19.1930000  -5.1720000  38.3710000
 -19.5430000  -5.5060000  39.1000000 -14.0150000  -3.3940000  42.4030000
 -14.7150000  -2.9960000  41.8860000 -13.5840000  -3.9970000  41.7970000
 -14.0490000  -3.4200000  42.2600000 -10.5960000  -9.0670000  44.5440000
 -10.0820000  -9.6670000  44.0050000 -10.8700000  -8.3770000  43.9400000
 -10.5660000  -9.0560000  44.3980000  -0.9010000  -1.2080000  40.8330000
  -0.3140000  -1.3850000  40.0980000  -1.4920000  -0.5280000  40.5100000
  -0.9020000  -1.1440000  40.6970000 -18.1100000  -1.7120000  38.5910000
 -17.5520000  -2.4710000  38.7620000 -17.5410000  -0.9580000  38.7460000
 -17.9650000  -1.7130000  38.6320000  -0.5390000 -14.5020000  44.5890000
   0.0430000 -14.0170000  44.0030000  -1.1050000 -13.8320000  44.9730000
  -0.5370000 -14.3540000  44.5640000 -12.8200000 -15.6830000  46.4550000
 -12.9980000 -15.0930000  45.7230000 -12.3350000 -16.4100000  46.0650000
 -12.7810000 -15.7000000  46.3120000 -19.2150000  -9.0930000  45.0320000
 -18.6180000  -8.8370000  44.3280000 -18.9120000  -8.5980000  45.7940000
 -19.1000000  -8.9970000  45.0400000 -16.5350000  -5.5860000  48.8370000
 -16.2750000  -4.8930000  48.2300000 -17.4060000  -5.3270000  49.1370000
 -16.6120000  -5.4640000  48.7970000  -2.8460000  -7.9960000  45.8180000
  -1.9930000  -8.3370000  45.5480000  -2.8240000  -8.0250000  46.7750000
  -2.7340000  -8.0440000  45.9050000  -0.7700000 -17.9700000  45.3270000
  -1.3660000 -18.3200000  45.9880000  -0.0520000 -18.6020000  45.2910000
  -0.7540000 -18.0950000  45.4070000  -4.7000000  -7.3250000  41.0330000
  -4.3040000  -6.9840000  41.8350000  -4.2090000  -6.9060000  40.3270000
  -4.5870000  -7.2280000  41.0460000 -12.3940000 -16.2980000  32.4540000
 -12.1660000 -16.3260000  33.3830000 -13.0230000 -17.0100000  32.3410000
 -12.4450000 -16.3930000  32.5590000 -14.9950000  -2.1120000  32.7140000
 -15.9490000  -2.1800000  32.6820000 -14.8060000  -1.8050000  33.6000000
 -15.0930000  -2.0810000  32.8230000 -14.4780000 -18.0120000  31.9600000
 -15.0380000 -17.5640000  32.5940000 -14.6240000 -18.9430000  32.1270000
 -14.5680000 -18.0740000  32.0620000 -13.6590000  -9.7710000  21.2080000
 -13.8140000  -9.3140000  22.0350000 -12.9470000 -10.3810000  21.4000000
 -13.5880000  -9.7910000  21.3380000 -10.2640000 -14.5620000  31.8130000
 -10.8670000 -15.2030000  32.1880000  -9.4750000 -14.6310000  32.3510000
 -10.2400000 -14.6520000  31.9300000  -9.7260000 -18.1250000  38.0910000
  -8.8340000 -18.3540000  37.8270000 -10.2480000 -18.2460000  37.2980000
  -9.6780000 -18.1690000  37.9570000 -16.7720000  -3.5150000  26.1710000
 -16.7350000  -2.6220000  25.8270000 -17.5710000  -3.5360000  26.6970000
 -16.8690000  -3.4030000  26.1940000  -7.8410000 -14.7360000  33.0820000
  -7.6630000 -15.6180000  33.4070000  -7.5220000 -14.1560000  33.7730000
  -7.7770000 -14.7750000  33.2120000  -2.4010000 -16.1080000  24.5800000
  -2.3330000 -17.0550000  24.4560000  -1.5320000 -15.8430000  24.8810000
  -2.2810000 -16.1950000  24.6030000  -1.2820000 -11.8170000  26.4210000
  -2.0610000 -11.7070000  26.9660000  -0.9380000 -10.9310000  26.3120000
  -1.3380000 -11.6900000  26.4770000 -10.1860000 -15.6890000  20.5690000
 -10.4520000 -16.1520000  21.3640000 -10.1700000 -16.3660000  19.8930000
 -10.2180000 -15.8350000  20.5850000  -9.9510000  -8.5010000  33.8530000
 -10.0790000  -9.3660000  34.2420000  -9.5080000  -8.6760000  33.0220000
  -9.9110000  -8.6340000  33.7960000  -7.0750000  -7.5490000  20.8720000
  -6.3050000  -7.5280000  21.4390000  -6.7560000  -7.9160000  20.0480000
  -6.9360000  -7.5930000  20.8390000  -1.3390000  -7.9120000  22.6020000
  -1.7050000  -7.2710000  23.2120000  -2.1040000  -8.3340000  22.2100000
  -1.4840000  -7.8840000  22.6300000 -18.8270000 -14.1710000  32.4100000
 -18.5500000 -13.6020000  33.1280000 -19.4290000 -14.7940000  32.8170000
 -18.8680000 -14.1780000  32.5540000 -17.9540000  -7.8340000  35.0030000
 -18.8750000  -8.0540000  34.8630000 -17.8750000  -7.7270000  35.9500000
 -18.0620000  -7.8490000  35.1060000  -3.0140000 -15.8820000  21.7070000
  -2.8820000 -16.0260000  22.6440000  -3.8820000 -15.4830000  21.6470000
  -3.1080000 -15.8500000  21.8200000 -14.2520000 -13.5650000  25.9800000
 -14.6590000 -13.5660000  25.1130000 -14.7380000 -12.9020000  26.4710000
 -14.3660000 -13.4800000  25.9320000 -16.1340000 -17.1690000  33.9980000
 -15.9260000 -16.2710000  34.2550000 -16.4890000 -17.5700000  34.7910000
 -16.1520000 -17.1060000  34.1320000 -14.8250000 -16.3780000  24.6980000
 -15.5840000 -16.3910000  25.2830000 -14.2930000 -17.1220000  24.9790000
 -14.8540000 -16.4750000  24.8090000  -7.7850000 -12.6800000  34.9970000
  -7.1990000 -12.3670000  35.6860000  -8.5110000 -12.0550000  34.9970000
  -7.8030000 -12.5600000  35.0850000 -10.1650000 -12.1790000  24.5290000
 -10.9900000 -12.1970000  24.0440000 -10.4160000 -12.3650000  25.4340000
 -10.3030000 -12.2050000  24.5830000 -14.8140000  -4.3210000  27.8610000
 -15.5370000  -4.0180000  27.3130000 -14.2190000  -3.5710000  27.9090000
 -14.8290000  -4.1860000  27.7970000 -18.2650000 -14.1670000  38.0510000
 -18.4630000 -14.0860000  37.1190000 -19.0580000 -13.8640000  38.4920000
 -18.3910000 -14.1180000  37.9880000 -15.3400000 -10.5570000  19.1990000
 -15.9430000  -9.8200000  19.1030000 -14.7110000 -10.2670000  19.8600000
 -15.3370000 -10.4260000  19.2710000 -12.1900000 -11.6040000  29.4740000
 -11.3090000 -11.3120000  29.7060000 -12.1040000 -11.9380000  28.5810000
 -12.0660000 -11.6090000  29.3890000 -18.2960000  -5.1410000  36.8080000
 -19.0580000  -4.5730000  36.6910000 -18.0910000  -5.4510000  35.9260000
 -18.3680000  -5.1080000  36.6800000 -12.5990000  -2.1100000  36.9430000
 -12.0250000  -2.1970000  37.7040000 -12.6410000  -1.1680000  36.7820000
 -12.5310000  -2.0010000  37.0190000  -7.8930000 -15.7850000  27.6580000
  -8.8450000 -15.8480000  27.7290000  -7.5650000 -16.5130000  28.1860000
  -7.9730000 -15.8860000  27.7350000  -2.7640000  -7.7770000  29.7800000
  -2.3240000  -7.2700000  30.4630000  -3.4360000  -8.2740000  30.2460000
  -2.7930000  -7.7760000  29.9270000  -1.5490000  -6.0090000  32.0080000
  -2.2630000  -5.4040000  31.8090000  -0.8330000  -5.4460000  32.3050000
  -1.5480000  -5.8600000  32.0210000 -12.2440000  -8.2560000  36.8440000
 -12.4010000  -9.2000000  36.8080000 -12.3340000  -7.9640000  35.9370000
 -12.2760000  -8.3400000  36.7230000  -5.4140000 -14.4600000  21.5220000
  -5.3100000 -14.1160000  22.4090000  -5.5440000 -13.6840000  20.9770000
  -5.4170000 -14.3170000  21.5660000  -2.7720000 -13.6120000  28.8490000
  -1.8600000 -13.6010000  29.1420000  -2.7720000 -14.1970000  28.0910000
  -2.6550000 -13.6860000  28.7900000  -4.9270000  -9.2750000  30.7000000
  -5.8020000  -9.5320000  30.4100000  -4.5750000 -10.0580000  31.1240000
  -4.9940000  -9.4080000  30.7170000 -15.2180000  -2.3590000  35.8580000
 -15.4700000  -1.4550000  36.0490000 -14.3140000  -2.4240000  36.1610000
 -15.1340000  -2.2510000  35.9210000 -13.1850000 -17.2860000  19.5090000
 -12.8430000 -17.2770000  20.4030000 -13.6700000 -16.4640000  19.4310000
 -13.2030000 -17.1790000  19.6130000 -18.0160000 -17.3700000  29.4130000
 -17.1830000 -16.9160000  29.2890000 -18.6040000 -16.9710000  28.7730000
 -17.9850000 -17.2610000  29.3160000 -16.9170000 -18.2370000  36.4250000
 -17.7500000 -18.6640000  36.6260000 -16.9510000 -17.4100000  36.9050000
 -17.0280000 -18.1860000  36.5120000 -10.5820000 -12.7750000  27.1630000
 -10.4960000 -13.5590000  27.7060000 -10.1420000 -12.0880000  27.6630000
 -10.5150000 -12.7870000  27.2960000  -1.9200000 -15.1570000  36.5030000
  -2.8190000 -15.4850000  36.4980000  -1.5950000 -15.3340000  35.6210000
  -1.9940000 -15.2220000  36.3900000  -3.4860000 -18.6360000  21.3770000
  -3.3580000 -17.7210000  21.1250000  -4.4350000 -18.7310000  21.4620000
  -3.5910000 -18.5310000  21.3560000  -7.4560000  -4.7510000  35.6330000
  -6.8740000  -4.9150000  36.3740000  -8.0490000  -4.0650000  35.9410000
  -7.4580000  -4.6840000  35.7670000  -0.3110000 -17.2980000  19.3780000
  -0.4870000 -16.4570000  18.9570000  -1.1200000 -17.7970000  19.2640000
  -0.4370000 -17.2540000  19.3100000   2.2580000 -11.3700000  26.7560000
   2.2720000 -11.6830000  27.6610000   2.2090000 -10.4170000  26.8330000
   2.2540000 -11.2880000  26.8820000  -8.3490000 -13.4340000  20.6390000
  -8.9750000 -14.1580000  20.6630000  -8.1310000 -13.2750000  21.5570000
  -8.4010000 -13.5060000  20.7590000 -11.6110000 -11.7860000  32.7600000
 -12.4560000 -12.1060000  33.0760000 -11.1380000 -12.5770000  32.5000000
 -11.6590000 -11.9280000  32.7670000 -14.6840000  -6.6000000  37.0930000
 -13.8730000  -7.0880000  36.9510000 -14.9530000  -6.3230000  36.2170000
 -14.6150000  -6.6270000  36.9620000  -1.8830000 -15.9190000  33.9340000
  -2.7490000 -16.0830000  33.5630000  -1.3010000 -16.5110000  33.4570000
  -1.9190000 -16.0160000  33.8250000  -2.1770000 -10.4690000  20.6400000
  -2.6340000 -10.7100000  21.4460000  -1.2510000 -10.6090000  20.8390000
  -2.1170000 -10.5180000  20.7690000 -12.4220000  -7.5600000  34.1210000
 -11.5420000  -7.9330000  34.0690000 -12.9600000  -8.1410000  33.5840000
 -12.3780000  -7.6820000  34.0460000  -3.4330000  -3.8490000  32.4780000
  -3.7840000  -3.9520000  33.3630000  -3.2850000  -2.9070000  32.3880000
  -3.4590000  -3.7420000  32.5800000  -1.2960000  -2.0820000  34.3570000
  -1.0980000  -2.4770000  35.2070000  -1.9670000  -1.4270000  34.5480000
  -1.3570000  -2.0490000  34.4900000  -4.0520000 -14.7520000  26.2280000
  -3.3560000 -15.1380000  25.6950000  -4.6620000 -15.4740000  26.3830000
  -4.0410000 -14.8940000  26.1790000  -5.9780000  -9.3030000  33.7700000
  -6.5350000  -9.6970000  33.0980000  -6.5540000  -8.6930000  34.2300000
  -6.1230000  -9.2750000  33.7430000  -2.0640000 -10.0420000  36.9640000
  -2.8870000  -9.7020000  36.6150000  -2.2080000 -10.0980000  37.9090000
  -2.1870000 -10.0060000  37.0410000  -8.1510000 -13.3160000  23.3030000
  -8.9740000 -13.0330000  23.6990000  -7.4730000 -12.9300000  23.8580000
  -8.1690000 -13.2310000  23.4250000 -15.1390000  -9.7250000  31.3960000
 -15.5160000  -9.8520000  32.2660000 -15.7020000 -10.2360000  30.8140000
 -15.2590000  -9.8060000  31.4330000  -6.1320000  -8.2150000  26.8510000
  -5.5870000  -7.7140000  27.4580000  -6.8260000  -7.6080000  26.5940000
  -6.1510000  -8.0740000  26.8960000 -18.1490000  -6.6490000  27.6720000
 -17.7550000  -6.7190000  26.8020000 -17.5370000  -7.1040000  28.2490000
 -18.0200000  -6.7160000  27.6340000  -3.4280000 -10.9690000  23.0440000
  -3.4710000 -10.3500000  23.7740000  -3.7940000 -11.7800000  23.3960000
  -3.4800000 -10.9930000  23.1830000  -8.6780000 -10.1050000  23.5230000
  -9.3500000 -10.7860000  23.5530000  -8.5990000  -9.8880000  22.5940000
  -8.7540000 -10.1640000  23.4080000 -14.9910000 -15.2520000  37.4860000
 -15.1440000 -14.9720000  36.5840000 -15.2280000 -14.4920000  38.0170000
 -15.0410000 -15.1190000  37.4390000  -7.4920000  -1.1260000  32.6410000
  -8.0410000  -1.1950000  31.8610000  -7.1280000  -2.0030000  32.7570000
  -7.5150000  -1.2470000  32.5560000 -13.0590000 -11.1310000  36.5920000
 -13.1730000 -11.4150000  35.6850000 -13.9490000 -11.0280000  36.9250000
 -13.1870000 -11.1540000  36.5180000 -14.0130000 -12.8040000  31.4380000
 -14.6030000 -13.5430000  31.2860000 -13.4010000 -12.8320000  30.7030000
 -14.0100000 -12.9020000  31.3240000 -12.6280000  -6.6120000  29.4700000
 -12.6680000  -7.5670000  29.4330000 -13.0840000  -6.3840000  30.2800000
 -12.6910000  -6.7050000  29.5690000  -4.6630000  -9.9590000  36.1520000
  -5.3540000 -10.5990000  36.3200000  -4.8710000  -9.6030000  35.2890000
  -4.7780000  -9.9960000  36.0630000 -19.0450000 -10.8570000  23.2890000
 -18.3800000 -10.2570000  23.6270000 -19.8770000 -10.4230000  23.4780000
 -19.0660000 -10.7250000  23.3570000 -16.7130000  -6.4120000  25.4910000
 -16.0340000  -6.6920000  26.1050000 -16.6140000  -5.4620000  25.4420000
 -16.6130000  -6.3260000  25.5640000 -17.0420000 -16.2210000  26.2560000
 -17.2800000 -17.0400000  25.8220000 -17.8030000 -15.6530000  26.1300000
 -17.1700000 -16.2530000  26.1840000 -12.4710000 -17.4060000  22.2600000
 -12.2260000 -18.2810000  22.5610000 -12.6860000 -16.9290000  23.0610000
 -12.4670000 -17.4570000  22.4010000  -7.2390000 -15.6570000  24.7980000
  -7.5330000 -14.9420000  24.2340000  -7.5100000 -15.3960000  25.6780000
  -7.3110000 -15.5320000  24.8380000  -8.7850000  -4.0010000  29.8800000
  -8.8490000  -4.5210000  30.6820000  -8.2400000  -3.2520000  30.1230000
  -8.7240000  -3.9720000  30.0140000 -15.6340000 -13.1410000  20.2940000
 -16.5580000 -13.3840000  20.3320000 -15.6370000 -12.2210000  20.0290000
 -15.7510000 -13.0540000  20.2650000 -13.6640000  -8.7880000  23.5830000
 -12.8410000  -8.3020000  23.5450000 -13.6130000  -9.2830000  24.4000000
 -13.5520000  -8.7890000  23.6820000 -16.9740000  -0.9130000  27.6590000
 -17.5150000  -0.4900000  28.3260000 -16.0740000  -0.7160000  27.9210000
 -16.9280000  -0.8330000  27.7780000  -4.3260000 -12.2840000  19.7490000
  -3.8480000 -12.6370000  19.0000000  -3.8240000 -11.5120000  20.0120000
  -4.2010000 -12.2300000  19.6870000 -15.4330000  -6.8480000  34.5790000
 -15.4700000  -6.5310000  33.6780000 -16.3040000  -7.2070000  34.7440000
 -15.5490000  -6.8540000  34.4860000 -11.5240000  -5.1080000  33.1540000
 -12.3070000  -4.7020000  32.7850000 -11.8120000  -5.9790000  33.4280000
 -11.6610000  -5.1680000  33.1420000 -17.7860000  -3.0960000  29.8970000
 -17.1310000  -2.7350000  29.3000000 -18.4650000  -3.4510000  29.3220000
 -17.7900000  -3.0950000  29.7470000  -2.4740000 -21.2050000  29.1480000
  -2.3280000 -20.7990000  30.0030000  -3.4190000 -21.1360000  29.0090000
  -2.5760000 -21.1440000  29.2400000 -12.4980000  -9.1510000  31.6330000
 -12.1730000  -9.9540000  32.0400000 -13.3670000  -9.3830000  31.3070000
 -12.5680000  -9.2830000  31.6430000 -16.8820000  -8.2170000  37.6020000
 -16.0790000  -7.7070000  37.4920000 -17.3320000  -7.7990000  38.3370000
 -16.8380000  -8.0980000  37.6820000  -6.3860000 -11.0690000  26.8620000
  -5.8880000 -11.2760000  26.0710000  -6.2020000 -10.1440000  27.0260000
  -6.2990000 -10.9770000  26.7820000 -11.7610000 -12.3230000  20.6030000
 -12.2420000 -13.1400000  20.4720000 -11.3270000 -12.1640000  19.7650000
 -11.7670000 -12.4070000  20.4790000 -17.7970000  -7.2860000  21.0610000
 -17.0300000  -7.6090000  21.5360000 -18.5400000  -7.5250000  21.6160000
 -17.7950000  -7.3580000  21.1930000 -18.4600000 -13.5300000  29.7570000
 -17.6610000 -13.8800000  29.3620000 -18.4790000 -13.9100000  30.6350000
 -18.3600000 -13.6240000  29.8190000  -4.5280000  -9.2340000  24.9670000
  -3.8540000  -8.8220000  25.5070000  -5.3380000  -8.7880000  25.2130000
  -4.5450000  -9.1240000  25.0670000 -16.3740000  -8.7430000  28.4700000
 -15.4170000  -8.7590000  28.4510000 -16.6190000  -9.5570000  28.9100000
 -16.2840000  -8.8490000  28.5240000  -6.0710000 -14.7330000  31.0090000
  -6.5250000 -14.2910000  30.2910000  -6.6130000 -14.5580000  31.7780000
  -6.1980000 -14.6540000  31.0150000  -0.9060000  -9.8050000  29.9530000
  -1.2950000 -10.2790000  30.6890000  -1.4410000  -9.0160000  29.8670000
  -1.0240000  -9.7650000  30.0360000  -7.5320000 -13.2570000  28.8190000
  -6.9060000 -12.8070000  28.2520000  -7.6740000 -14.1040000  28.3950000
  -7.4700000 -13.3080000  28.6920000  -8.9970000  -5.3800000  32.3180000
  -8.6040000  -4.5590000  32.6140000  -9.9100000  -5.3250000  32.6000000
  -9.0630000  -5.2680000  32.3920000  -7.5080000 -16.5120000  21.5750000
  -8.2670000 -16.2640000  21.0470000  -6.9530000 -15.7320000  21.5760000
  -7.5340000 -16.3800000  21.5080000 -14.9740000 -13.2190000  23.2920000
 -15.0640000 -13.4900000  22.3790000 -15.8710000 -13.0620000  23.5850000
 -15.1000000 -13.2330000  23.2130000  -5.3860000 -17.3280000  26.0880000
  -6.0480000 -16.9220000  25.5280000  -4.6910000 -17.5910000  25.4850000
  -5.3820000 -17.3090000  25.9390000  -3.7730000 -12.0960000  31.4670000
  -4.0380000 -12.7480000  32.1170000  -3.5540000 -12.6090000  30.6890000
  -3.7790000 -12.2450000  31.4510000 -13.0270000 -10.3030000  25.6920000
 -12.8390000 -11.0550000  25.1300000 -12.1710000  -9.9120000  25.8620000
 -12.8940000 -10.3490000  25.6420000 -11.3710000 -15.4430000  34.9320000
 -10.4490000 -15.3670000  35.1760000 -11.8230000 -14.8260000  35.5070000
 -11.3110000 -15.3550000  35.0360000 -14.3800000 -18.4330000  27.8510000
 -14.2090000 -17.5120000  28.0500000 -13.8140000 -18.9170000  28.4520000
 -14.2860000 -18.3770000  27.9530000 -13.5260000  -9.3060000  28.2440000
 -13.2690000  -9.7240000  27.4220000 -13.4420000  -9.9980000  28.9000000
 -13.4820000  -9.4480000  28.2230000  -2.7200000 -18.5670000  37.6670000
  -3.2610000 -19.0820000  38.2660000  -3.1840000 -17.7340000  37.5800000
  -2.8480000 -18.5260000  37.7330000  -1.3510000 -11.0160000  32.8650000
  -2.2470000 -11.3410000  32.7780000  -1.4510000 -10.1210000  33.1900000
  -1.4790000 -10.9430000  32.8960000  -9.1550000  -9.3290000  20.9030000
  -8.4250000  -8.7090000  20.8920000  -9.9370000  -8.7780000  20.8720000
  -9.1620000  -9.1790000  20.8970000  -9.5230000 -11.9480000  30.0190000
  -9.9720000 -12.7020000  30.4010000  -8.8010000 -12.3280000  29.5190000
  -9.4880000 -12.0930000  30.0050000 -12.5000000 -15.2110000  24.0020000
 -12.6480000 -14.2680000  23.9240000 -13.2920000 -15.5430000  24.4260000
 -12.6200000 -15.1330000  24.0460000  -8.6320000  -0.6010000  29.9800000
  -7.8420000  -0.0630000  29.9260000  -9.2320000  -0.2090000  29.3460000
  -8.6080000  -0.4820000  29.8920000  -8.8490000 -14.8670000  36.4210000
  -9.3150000 -14.2690000  37.0050000  -8.2540000 -14.3030000  35.9260000
  -8.8330000 -14.7190000  36.4320000 -13.2440000 -14.7220000  20.5970000
 -14.1610000 -14.9370000  20.7630000 -12.7690000 -15.1100000  21.3320000
 -13.3010000 -14.7990000  20.7120000 -16.6020000  -9.9760000  33.8680000
 -17.2810000  -9.3370000  34.0880000 -17.0120000 -10.8250000  34.0320000
 -16.7420000 -10.0030000  33.9170000 -18.4540000 -17.0670000  32.4500000
 -17.5920000 -17.1060000  32.8640000 -18.2680000 -16.9170000  31.5230000
 -18.3200000 -17.0530000  32.3840000 -18.9950000 -11.8960000  36.4370000
 -19.5950000 -11.1630000  36.5780000 -18.4480000 -11.9130000  37.2230000
 -19.0020000 -11.8040000  36.5570000 -17.6400000 -12.9950000  24.4800000
 -17.2390000 -12.4100000  25.1240000 -18.1030000 -12.4100000  23.8810000
 -17.6470000 -12.8450000  24.4860000  -7.5600000 -11.2000000  32.3800000
  -7.7230000 -10.8910000  31.4880000  -8.4210000 -11.4640000  32.7020000
  -7.6910000 -11.1940000  32.3070000  -7.3380000 -16.9790000  36.5170000
  -7.3410000 -17.2690000  35.6050000  -8.0100000 -16.2980000  36.5540000
  -7.4250000 -16.9290000  36.4050000 -15.6790000 -18.3160000  20.5250000
 -15.6780000 -17.5740000  21.1290000 -15.1750000 -18.0120000  19.7710000
 -15.6140000 -18.1820000  20.5060000  -7.6280000  -7.5370000  34.9160000
  -8.4460000  -7.6930000  34.4440000  -7.5800000  -6.5850000  35.0050000
  -7.7260000  -7.4350000  34.8670000  -3.2780000 -12.8410000  36.1460000
  -2.5650000 -13.4730000  36.2420000  -2.8380000 -12.0040000  36.0000000
  -3.1310000 -12.8150000  36.1390000 -17.2500000 -11.0590000  29.6680000
 -18.0280000 -10.5530000  29.8990000 -17.5120000 -11.9720000  29.7910000
 -17.3820000 -11.1110000  29.7130000  -1.8050000  -1.5640000  31.7150000
  -1.5230000  -1.6600000  32.6250000  -2.5860000  -1.0130000  31.7640000
  -1.8690000  -1.5060000  31.8380000 -14.1530000  -6.9020000  26.7740000
 -14.2400000  -6.1220000  27.3230000 -14.0810000  -7.6260000  27.3970000
 -14.1550000  -6.8950000  26.9240000 -18.5220000 -15.8180000  21.9790000
 -18.5790000 -16.0720000  21.0580000 -19.0700000 -15.0360000  22.0470000
 -18.6000000 -15.7500000  21.8700000 -14.0510000 -11.7610000  33.9580000
 -14.1420000 -11.8810000  33.0130000 -14.7750000 -11.1830000  34.1960000
 -14.1550000 -11.7020000  33.8670000 -12.9690000 -18.2450000  25.4100000
 -13.3740000 -18.5760000  26.2120000 -12.8620000 -19.0190000  24.8580000
 -13.0070000 -18.3860000  25.4420000 -12.4260000 -12.1990000  23.2960000
 -12.0530000 -12.2640000  22.4170000 -13.3310000 -12.4950000  23.1950000
 -12.4940000 -12.2460000  23.1710000 -10.2810000 -15.3020000  25.6810000
 -11.1330000 -15.4400000  25.2690000 -10.2310000 -14.3550000  25.8170000
 -10.3830000 -15.1980000  25.6460000 -17.7810000  -1.6970000  32.3010000
 -18.0750000  -1.9700000  31.4310000 -18.0900000  -0.7950000  32.3850000
 -17.8590000  -1.6170000  32.2000000 -15.4090000 -14.6340000  34.8720000
 -14.6180000 -14.6010000  34.3350000 -15.7690000 -13.7480000  34.8240000
 -15.3540000 -14.5170000  34.7970000  -9.2360000 -11.6310000  18.9200000
  -9.2550000 -10.9810000  19.6220000  -8.8810000 -12.4190000  19.3320000
  -9.1930000 -11.6480000  19.0620000  -4.2530000 -16.3810000  36.3410000
  -4.1920000 -16.7280000  35.4510000  -5.1930000 -16.3330000  36.5160000
  -4.3660000 -16.4190000  36.2490000 -13.8660000  -4.3330000  31.6990000
 -14.4360000  -3.6460000  32.0460000 -14.3180000  -5.1490000  31.9130000
 -13.9970000  -4.3490000  31.7710000  -9.5630000 -17.1280000  23.7720000
  -9.7880000 -16.3430000  24.2710000  -8.6640000 -16.9760000  23.4800000
  -9.4760000 -17.0080000  23.7990000  -4.1360000 -17.4080000  28.6420000
  -3.2650000 -17.8010000  28.6990000  -4.2350000 -17.1770000  27.7190000
  -4.0370000 -17.4290000  28.5310000  -7.2280000 -17.1410000  33.7760000
  -7.4880000 -17.9170000  33.2790000  -6.2720000 -17.1360000  33.7280000
  -7.1390000 -17.2400000  33.7070000  -4.1110000 -13.5430000  23.8900000
  -4.3320000 -13.7930000  24.7880000  -3.2950000 -14.0090000  23.7070000
  -4.0350000 -13.6350000  23.9820000 -10.3080000 -14.9930000  29.0570000
 -11.1590000 -15.4240000  28.9700000 -10.2090000 -14.8460000  29.9980000
 -10.4050000 -15.0290000  29.1660000 -11.6770000 -17.9720000  36.2080000
 -12.2300000 -17.6610000  36.9240000 -11.6160000 -17.2260000  35.6110000
 -11.7400000 -17.8370000  36.2230000  -7.0080000  -3.7880000  33.0980000
  -7.2110000  -4.0980000  33.9800000  -6.4940000  -4.4960000  32.7080000
  -6.9680000  -3.9190000  33.1610000  -1.4200000 -13.5190000  21.7260000
  -2.2430000 -14.0060000  21.6780000  -1.6720000 -12.6550000  22.0540000
  -1.5570000 -13.4710000  21.7620000  -4.3630000  -6.1860000  35.7450000
  -5.0030000  -6.7190000  36.2170000  -4.4010000  -6.5090000  34.8440000
  -4.4500000  -6.2960000  35.6900000 -10.5960000  -3.8180000  35.8800000
 -10.9830000  -4.1830000  35.0840000 -11.2440000  -3.1890000  36.1950000
 -10.7290000  -3.7850000  35.8190000 -18.2360000  -4.4640000  33.2490000
 -18.6180000  -3.6210000  33.4930000 -17.4120000  -4.2380000  32.8180000
 -18.1800000  -4.3270000  33.2250000 -16.3340000 -14.8380000  28.6710000
 -16.4270000 -15.3050000  27.8410000 -15.5100000 -15.1610000  29.0360000
 -16.2400000 -14.9390000  28.6120000  -1.6960000  -8.3490000  33.5620000
  -2.5870000  -8.1330000  33.8400000  -1.4190000  -7.5960000  33.0410000
  -1.7750000  -8.2250000  33.5320000 -14.1700000 -15.5800000  29.9270000
 -13.7180000 -16.1590000  30.5410000 -13.6070000 -15.5650000  29.1540000
 -14.0400000 -15.6520000  29.9070000 -17.5880000 -12.4800000  34.1960000
 -18.1550000 -12.1190000  33.5140000 -18.0850000 -12.3640000  35.0070000
 -17.7240000 -12.4190000  34.2120000  -6.3420000   1.1520000  30.1130000
  -5.5670000   0.9960000  29.5740000  -6.3730000   2.1030000  30.2190000
  -6.2470000   1.2540000  30.0580000  -4.5790000  -3.0160000  35.6490000
  -4.3090000  -3.9200000  35.8090000  -5.5310000  -3.0290000  35.7500000
  -4.6660000  -3.1330000  35.6830000  -4.2690000  -7.3100000  33.3460000
  -4.8790000  -8.0460000  33.4020000  -4.7010000  -6.6860000  32.7630000
  -4.4020000  -7.3250000  33.2790000 -15.1710000  -6.7220000  31.7710000
 -15.6320000  -6.3780000  31.0060000 -15.0900000  -7.6600000  31.5990000
 -15.2200000  -6.7980000  31.6510000 -16.9750000  -9.0810000  23.9560000
 -16.0190000  -9.0490000  23.9830000 -17.2460000  -8.1640000  23.9940000
 -16.8870000  -8.9600000  23.9640000 -12.1350000 -13.6220000  36.8990000
 -12.9000000 -14.0190000  37.3170000 -12.3890000 -12.7110000  36.7510000
 -12.2660000 -13.5560000  36.9340000 -15.6160000 -15.7910000  21.9270000
 -15.3090000 -15.7260000  22.8310000 -16.5350000 -16.0490000  22.0060000
 -15.6940000 -15.8160000  22.0530000  -6.3070000 -11.5300000  24.3110000
  -5.6870000 -11.0860000  23.7320000  -7.1170000 -11.0260000  24.2260000
  -6.3310000 -11.4080000  24.2260000 -19.6870000  -5.4780000  20.2720000
 -19.0600000  -6.0010000  20.7710000 -19.1930000  -5.1720000  19.5110000
 -19.5430000  -5.5060000  20.2390000  -5.4140000  -5.4510000  31.3650000
  -5.5870000  -5.5280000  30.4270000  -4.6310000  -4.9040000  31.4200000
  -5.3360000  -5.3910000  31.2520000 -10.5960000  -9.0670000  25.6840000
 -10.0820000  -9.6670000  25.1440000 -10.8700000  -8.3770000  25.0800000
 -10.5660000  -9.0560000  25.5380000  -3.5680000  -0.5000000  34.9750000
  -3.1590000  -0.3280000  35.8230000  -3.8370000  -1.4170000  35.0200000
  -3.5500000  -0.5950000  35.0890000  -4.5540000 -15.8380000  33.2430000
  -4.8410000 -15.0120000  33.6350000  -4.7770000 -15.7540000  32.3160000
  -4.6200000 -15.7210000  33.1750000  -1.0610000  -2.8530000  36.9680000
  -1.8330000  -2.8220000  37.5320000  -0.4440000  -2.2430000  37.3740000
  -1.0810000  -2.7710000  37.0930000  -0.5390000 -14.5020000  25.7290000
   0.0430000 -14.0170000  25.1430000  -1.1050000 -13.8320000  26.1120000
  -0.5370000 -14.3540000  25.7030000  -6.1600000  -7.7260000  37.0370000
  -6.9710000  -7.6880000  36.5300000  -5.7960000  -8.5890000  36.8420000
  -6.2170000  -7.8310000  36.9470000 -12.8200000 -15.6830000  27.5950000
 -12.9980000 -15.0930000  26.8630000 -12.3350000 -16.4100000  27.2050000
 -12.7810000 -15.7000000  27.4520000 -19.2150000  -9.0930000  26.1720000
 -18.6180000  -8.8370000  25.4680000 -18.9120000  -8.5980000  26.9340000
 -19.1000000  -8.9970000  26.1790000 -16.5350000  -5.5860000  29.9770000
 -16.2750000  -4.8930000  29.3690000 -17.4060000  -5.3270000  30.2760000
 -16.6120000  -5.4640000  29.9370000  -2.8460000  -7.9960000  26.9580000
  -1.9930000  -8.3370000  26.6880000  -2.8240000  -8.0250000  27.9140000
  -2.7340000  -8.0440000  27.0450000  -9.9160000 -11.0850000  34.8630000
 -10.6700000 -11.4150000  34.3740000 -10.1170000 -11.2830000  35.7770000
 -10.0380000 -11.1530000  34.9170000  -6.3660000 -11.7620000  36.9320000
  -7.1500000 -11.8010000  37.4800000  -5.7290000 -12.3130000  37.3860000
  -6.3850000 -11.8370000  37.0600000  -0.7700000 -17.9700000  26.4660000
  -1.3660000 -18.3200000  27.1280000  -0.0520000 -18.6020000  26.4310000
  -0.7540000 -18.0950000  26.5460000  -4.9710000 -13.2390000  34.1350000
  -4.2780000 -13.0450000  34.7670000  -5.6070000 -12.5330000  34.2530000
  -4.9640000 -13.1240000  34.2310000 -10.2300000  -4.6680000   7.0170000
 -10.4040000  -4.5070000   7.9450000 -10.9950000  -5.1540000   6.7110000
 -10.3500000  -4.7100000   7.0970000 -14.4780000 -18.0120000  13.1000000
 -15.0380000 -17.5640000  13.7340000 -14.6240000 -18.9430000  13.2670000
 -14.5680000 -18.0740000  13.2020000 -13.6590000  -9.7710000   2.3480000
 -13.8140000  -9.3140000   3.1750000 -12.9470000 -10.3810000   2.5400000
 -13.5880000  -9.7910000   2.4780000  -9.7260000 -18.1250000  19.2310000
  -8.8340000 -18.3540000  18.9670000 -10.2480000 -18.2460000  18.4380000
  -9.6780000 -18.1690000  19.0960000  -7.8410000 -14.7360000  14.2210000
  -7.6630000 -15.6180000  14.5470000  -7.5220000 -14.1560000  14.9130000
  -7.7770000 -14.7750000  14.3520000  -8.1530000  -6.7400000   6.4670000
  -8.5790000  -7.3470000   5.8630000  -8.8160000  -6.0730000   6.6450000
  -8.2920000  -6.7320000   6.4130000  -2.4010000 -16.1080000   5.7200000
  -2.3330000 -17.0550000   5.5960000  -1.5320000 -15.8430000   6.0210000
  -2.2810000 -16.1950000   5.7430000 -10.1860000 -15.6890000   1.7090000
 -10.4520000 -16.1520000   2.5040000 -10.1700000 -16.3660000   1.0330000
 -10.2180000 -15.8350000   1.7250000 -18.8270000 -14.1710000  13.5500000
 -18.5500000 -13.6020000  14.2680000 -19.4290000 -14.7940000  13.9570000
 -18.8680000 -14.1780000  13.6940000  -3.0140000 -15.8820000   2.8470000
  -2.8820000 -16.0260000   3.7840000  -3.8820000 -15.4830000   2.7870000
  -3.1080000 -15.8500000   2.9600000  -6.3640000  -4.1450000   7.3480000
  -6.1880000  -3.2950000   6.9450000  -7.1230000  -4.4820000   6.8740000
  -6.4380000  -4.0790000   7.2360000  -6.5740000  -0.8200000   8.6000000
  -5.9880000  -0.0830000   8.4250000  -7.3560000  -0.6340000   8.0810000
  -6.5990000  -0.7020000   8.5110000 -14.2520000 -13.5650000   7.1200000
 -14.6590000 -13.5660000   6.2530000 -14.7380000 -12.9020000   7.6110000
 -14.3660000 -13.4800000   7.0720000 -16.1340000 -17.1690000  15.1380000
 -15.9260000 -16.2710000  15.3950000 -16.4890000 -17.5700000  15.9310000
 -16.1520000 -17.1060000  15.2720000 -14.8250000 -16.3780000   5.8380000
 -15.5840000 -16.3910000   6.4230000 -14.2930000 -17.1220000   6.1190000
 -14.8540000 -16.4750000   5.9490000  -7.7850000 -12.6800000  16.1370000
  -7.1990000 -12.3670000  16.8260000  -8.5110000 -12.0550000  16.1370000
  -7.8030000 -12.5600000  16.2250000 -10.1650000 -12.1790000   5.6690000
 -10.9900000 -12.1970000   5.1840000 -10.4160000 -12.3650000   6.5740000
 -10.3030000 -12.2050000   5.7230000 -18.2650000 -14.1670000  19.1910000
 -18.4630000 -14.0860000  18.2600000 -19.0580000 -13.8640000  19.6320000
 -18.3910000 -14.1180000  19.1280000 -10.9130000  -2.0950000   1.6320000
 -10.4540000  -2.9170000   1.8040000 -10.2150000  -1.4550000   1.4930000
 -10.7650000  -2.1180000   1.6360000 -18.2960000  -5.1410000  17.9480000
 -19.0580000  -4.5730000  17.8310000 -18.0910000  -5.4510000  17.0660000
 -18.3680000  -5.1080000  17.8200000 -12.2440000  -8.2560000  17.9840000
 -12.4010000  -9.2000000  17.9480000 -12.3340000  -7.9640000  17.0770000
 -12.2760000  -8.3400000  17.8630000  -5.4140000 -14.4600000   2.6620000
  -5.3100000 -14.1160000   3.5490000  -5.5440000 -13.6840000   2.1170000
  -5.4170000 -14.3170000   2.7060000  -2.7720000 -13.6120000   9.9890000
  -1.8600000 -13.6010000  10.2820000  -2.7720000 -14.1970000   9.2310000
  -2.6550000 -13.6860000   9.9300000 -13.1850000 -17.2860000   0.6490000
 -12.8430000 -17.2770000   1.5430000 -13.6700000 -16.4640000   0.5710000
 -13.2030000 -17.1790000   0.7530000 -18.0160000 -17.3700000  10.5530000
 -17.1830000 -16.9160000  10.4290000 -18.6040000 -16.9710000   9.9130000
 -17.9850000 -17.2610000  10.4560000 -16.9170000 -18.2370000  17.5650000
 -17.7500000 -18.6640000  17.7660000 -16.9510000 -17.4100000  18.0450000
 -17.0280000 -18.1860000  17.6520000  -1.9200000 -15.1570000  17.6430000
  -2.8190000 -15.4850000  17.6380000  -1.5950000 -15.3340000  16.7610000
  -1.9940000 -15.2220000  17.5300000  -3.4860000 -18.6360000   2.5170000
  -3.3580000 -17.7210000   2.2650000  -4.4350000 -18.7310000   2.6020000
  -3.5910000 -18.5310000   2.4960000  -0.3110000 -17.2980000   0.5180000
  -0.4870000 -16.4570000   0.0970000  -1.1200000 -17.7970000   0.4040000
  -0.4370000 -17.2540000   0.4500000   2.2580000 -11.3700000   7.8960000
   2.2720000 -11.6830000   8.8010000   2.2090000 -10.4170000   7.9730000
   2.2540000 -11.2880000   8.0220000 -11.6110000 -11.7860000  13.8990000
 -12.4560000 -12.1060000  14.2160000 -11.1380000 -12.5770000  13.6400000
 -11.6590000 -11.9280000  13.9070000  -1.8830000 -15.9190000  15.0740000
  -2.7490000 -16.0830000  14.7030000  -1.3010000 -16.5110000  14.5960000
  -1.9190000 -16.0160000  14.9650000  -2.1770000 -10.4690000   1.7800000
  -2.6340000 -10.7100000   2.5860000  -1.2510000 -10.6090000   1.9790000
  -2.1170000 -10.5180000   1.9090000  -4.0520000 -14.7520000   7.3680000
  -3.3560000 -15.1380000   6.8350000  -4.6620000 -15.4740000   7.5230000
  -4.0410000 -14.8940000   7.3190000  -2.0640000 -10.0420000  18.1040000
  -2.8870000  -9.7020000  17.7550000  -2.2080000 -10.0980000  19.0490000
  -2.1870000 -10.0060000  18.1800000  -3.4280000 -10.9690000   4.1840000
  -3.4710000 -10.3500000   4.9140000  -3.7940000 -11.7800000   4.5360000
  -3.4800000 -10.9930000   4.3230000 -14.9910000 -15.2520000  18.6260000
 -15.1440000 -14.9720000  17.7240000 -15.2280000 -14.4920000  19.1570000
 -15.0410000 -15.1190000  18.5790000 -13.0590000 -11.1310000  17.7320000
 -13.1730000 -11.4150000  16.8250000 -13.9490000 -11.0280000  18.0650000
 -13.1870000 -11.1540000  17.6590000 -14.0130000 -12.8040000  12.5780000
 -14.6030000 -13.5430000  12.4260000 -13.4010000 -12.8320000  11.8430000
 -14.0100000 -12.9020000  12.4640000 -19.0450000 -10.8570000   4.4290000
 -18.3800000 -10.2570000   4.7670000 -19.8770000 -10.4230000   4.6180000
 -19.0660000 -10.7250000   4.4970000 -11.2980000  -7.6760000   1.7180000
 -11.6810000  -7.9850000   0.8970000 -11.0590000  -6.7650000   1.5430000
 -11.3160000  -7.5990000   1.5910000 -17.0420000 -16.2210000   7.3960000
 -17.2800000 -17.0400000   6.9620000 -17.8030000 -15.6530000   7.2690000
 -17.1700000 -16.2530000   7.3240000 -12.4710000 -17.4060000   3.4000000
 -12.2260000 -18.2810000   3.7010000 -12.6860000 -16.9290000   4.2010000
 -12.4670000 -17.4570000   3.5410000  -7.2390000 -15.6570000   5.9380000
  -7.5330000 -14.9420000   5.3740000  -7.5100000 -15.3960000   6.8180000
  -7.3110000 -15.5320000   5.9780000 -15.6340000 -13.1410000   1.4340000
 -16.5580000 -13.3840000   1.4720000 -15.6370000 -12.2210000   1.1690000
 -15.7510000 -13.0540000   1.4050000 -11.3690000  -7.1510000   4.7250000
 -11.8920000  -6.4480000   5.1110000 -11.3570000  -6.9550000   3.7890000
 -11.4340000  -7.0360000   4.6550000  -4.3260000 -12.2840000   0.8890000
  -3.8480000 -12.6370000   0.1400000  -3.8240000 -11.5120000   1.1520000
  -4.2010000 -12.2300000   0.8270000 -15.4330000  -6.8480000  15.7190000
 -15.4700000  -6.5310000  14.8170000 -16.3040000  -7.2070000  15.8840000
 -15.5490000  -6.8540000  15.6250000 -11.7610000 -12.3230000   1.7430000
 -12.2420000 -13.1400000   1.6120000 -11.3270000 -12.1640000   0.9050000
 -11.7670000 -12.4070000   1.6190000 -17.7970000  -7.2860000   2.2010000
 -17.0300000  -7.6090000   2.6760000 -18.5400000  -7.5250000   2.7560000
 -17.7950000  -7.3580000   2.3330000  -1.6980000  -0.2970000  10.0700000
  -1.8450000  -1.2400000  10.1510000  -1.0440000  -0.0990000  10.7410000
  -1.6330000  -0.3930000  10.1660000 -18.4600000 -13.5300000  10.8970000
 -17.6610000 -13.8800000  10.5020000 -18.4790000 -13.9100000  11.7750000
 -18.3600000 -13.6240000  10.9590000  -4.5280000  -9.2340000   6.1070000
  -3.8540000  -8.8220000   6.6470000  -5.3380000  -8.7880000   6.3530000
  -4.5450000  -9.1240000   6.2070000  -6.0710000 -14.7330000  12.1490000
  -6.5250000 -14.2910000  11.4310000  -6.6130000 -14.5580000  12.9180000
  -6.1980000 -14.6540000  12.1550000  -0.9060000  -9.8050000  11.0930000
  -1.2950000 -10.2790000  11.8290000  -1.4410000  -9.0160000  11.0070000
  -1.0240000  -9.7650000  11.1760000  -7.5080000 -16.5120000   2.7150000
  -8.2670000 -16.2640000   2.1870000  -6.9530000 -15.7320000   2.7160000
  -7.5340000 -16.3800000   2.6480000 -14.9740000 -13.2190000   4.4320000
 -15.0640000 -13.4900000   3.5190000 -15.8710000 -13.0620000   4.7250000
 -15.1000000 -13.2330000   4.3530000  -5.3860000 -17.3280000   7.2280000
  -6.0480000 -16.9220000   6.6680000  -4.6910000 -17.5910000   6.6250000
  -5.3820000 -17.3090000   7.0790000  -3.7730000 -12.0960000  12.6070000
  -4.0380000 -12.7480000  13.2570000  -3.5540000 -12.6090000  11.8290000
  -3.7790000 -12.2450000  12.5910000 -11.3710000 -15.4430000  16.0720000
 -10.4490000 -15.3670000  16.3160000 -11.8230000 -14.8260000  16.6470000
 -11.3110000 -15.3550000  16.1760000 -14.3800000 -18.4330000   8.9910000
 -14.2090000 -17.5120000   9.1900000 -13.8140000 -18.9170000   9.5920000
 -14.2860000 -18.3770000   9.0930000 -10.5770000  -5.0960000   1.1150000
  -9.7330000  -5.1340000   1.5660000 -10.3540000  -4.8910000   0.2070000
 -10.4400000  -5.0750000   1.0570000  -2.7200000 -18.5670000  18.8070000
  -3.2610000 -19.0820000  19.4050000  -3.1840000 -17.7340000  18.7200000
  -2.8480000 -18.5260000  18.8730000  -5.1260000  -2.4250000  10.3820000
  -5.6700000  -1.8250000   9.8710000  -5.5170000  -3.2860000  10.2360000
  -5.2450000  -2.4580000  10.2980000  -1.3510000 -11.0160000  14.0050000
  -2.2470000 -11.3410000  13.9180000  -1.4510000 -10.1210000  14.3300000
  -1.4790000 -10.9430000  14.0360000  -9.1550000  -9.3290000   2.0430000
  -8.4250000  -8.7090000   2.0320000  -9.9370000  -8.7780000   2.0120000
  -9.1620000  -9.1790000   2.0370000 -12.5000000 -15.2110000   5.1420000
 -12.6480000 -14.2680000   5.0640000 -13.2920000 -15.5430000   5.5660000
 -12.6200000 -15.1330000   5.1860000  -8.8490000 -14.8670000  17.5610000
  -9.3150000 -14.2690000  18.1450000  -8.2540000 -14.3030000  17.0660000
  -8.8330000 -14.7190000  17.5720000 -13.2440000 -14.7220000   1.7370000
 -14.1610000 -14.9370000   1.9030000 -12.7690000 -15.1100000   2.4720000
 -13.3010000 -14.7990000   1.8520000 -18.4540000 -17.0670000  13.5900000
 -17.5920000 -17.1060000  14.0040000 -18.2680000 -16.9170000  12.6630000
 -18.3200000 -17.0530000  13.5240000 -18.9950000 -11.8960000  17.5770000
 -19.5950000 -11.1630000  17.7180000 -18.4480000 -11.9130000  18.3630000
 -19.0020000 -11.8040000  17.6960000 -17.6400000 -12.9950000   5.6200000
 -17.2390000 -12.4100000   6.2640000 -18.1030000 -12.4100000   5.0210000
 -17.6470000 -12.8450000   5.6260000  -7.3380000 -16.9790000  17.6570000
  -7.3410000 -17.2690000  16.7450000  -8.0100000 -16.2980000  17.6940000
  -7.4250000 -16.9290000  17.5450000 -15.6790000 -18.3160000   1.6650000
 -15.6780000 -17.5740000   2.2690000 -15.1750000 -18.0120000   0.9110000
 -15.6140000 -18.1820000   1.6460000 -14.7630000  -6.2800000   1.9490000
 -14.6770000  -6.3310000   0.9970000 -15.3160000  -5.5120000   2.0980000
 -14.8230000  -6.1880000   1.8460000  -3.2780000 -12.8410000  17.2860000
  -2.5650000 -13.4730000  17.3810000  -2.8380000 -12.0040000  17.1400000
  -3.1310000 -12.8150000  17.2790000 -17.2500000 -11.0590000  10.8080000
 -18.0280000 -10.5530000  11.0390000 -17.5120000 -11.9720000  10.9310000
 -17.3820000 -11.1110000  10.8530000 -18.5220000 -15.8180000   3.1190000
 -18.5790000 -16.0720000   2.1980000 -19.0700000 -15.0360000   3.1870000
 -18.6000000 -15.7500000   3.0100000 -14.0510000 -11.7610000  15.0980000
 -14.1420000 -11.8810000  14.1530000 -14.7750000 -11.1830000  15.3360000
 -14.1550000 -11.7020000  15.0070000 -12.9690000 -18.2450000   6.5500000
 -13.3740000 -18.5760000   7.3520000 -12.8620000 -19.0190000   5.9980000
 -13.0070000 -18.3860000   6.5820000 -12.7270000  -5.0420000   2.8700000
 -13.4590000  -5.5310000   2.4940000 -12.0670000  -5.0290000   2.1780000
 -12.7370000  -5.1030000   2.7340000 -10.2810000 -15.3020000   6.8210000
 -11.1330000 -15.4400000   6.4090000 -10.2310000 -14.3550000   6.9570000
 -10.3830000 -15.1980000   6.7860000 -15.4090000 -14.6340000  16.0120000
 -14.6180000 -14.6010000  15.4750000 -15.7690000 -13.7480000  15.9640000
 -15.3540000 -14.5170000  15.9370000  -9.2360000 -11.6310000   0.0600000
  -9.2550000 -10.9810000   0.7620000  -8.8810000 -12.4190000   0.4720000
  -9.1930000 -11.6480000   0.2020000  -4.2530000 -16.3810000  17.4810000
  -4.1920000 -16.7280000  16.5910000  -5.1930000 -16.3330000  17.6550000
  -4.3660000 -16.4190000  17.3890000  -9.5630000 -17.1280000   4.9120000
  -9.7880000 -16.3430000   5.4110000  -8.6640000 -16.9760000   4.6200000
  -9.4760000 -17.0080000   4.9390000  -4.1360000 -17.4080000   9.7820000
  -3.2650000 -17.8010000   9.8390000  -4.2350000 -17.1770000   8.8590000
  -4.0370000 -17.4290000   9.6710000  -7.2280000 -17.1410000  14.9160000
  -7.4880000 -17.9170000  14.4190000  -6.2720000 -17.1360000  14.8680000
  -7.1390000 -17.2400000  14.8460000  -4.1110000 -13.5430000   5.0300000
  -4.3320000 -13.7930000   5.9280000  -3.2950000 -14.0090000   4.8470000
  -4.0350000 -13.6350000   5.1220000 -11.6770000 -17.9720000  17.3480000
 -12.2300000 -17.6610000  18.0640000 -11.6160000 -17.2260000  16.7510000
 -11.7400000 -17.8370000  17.3630000  -1.4200000 -13.5190000   2.8660000
  -2.2430000 -14.0060000   2.8180000  -1.6720000 -12.6550000   3.1940000
  -1.5570000 -13.4710000   2.9020000 -18.2360000  -4.4640000  14.3890000
 -18.6180000  -3.6210000  14.6330000 -17.4120000  -4.2380000  13.9580000
 -18.1800000  -4.3270000  14.3650000 -16.3340000 -14.8380000   9.8110000
 -16.4270000 -15.3050000   8.9810000 -15.5100000 -15.1610000  10.1760000
 -16.2400000 -14.9390000   9.7520000 -14.1700000 -15.5800000  11.0670000
 -13.7180000 -16.1590000  11.6810000 -13.6070000 -15.5650000  10.2940000
 -14.0400000 -15.6520000  11.0470000 -17.5880000 -12.4800000  15.3360000
 -18.1550000 -12.1190000  14.6540000 -18.0850000 -12.3640000  16.1460000
 -17.7240000 -12.4190000  15.3520000  -6.3420000   1.1520000  11.2530000
  -5.5670000   0.9960000  10.7140000  -6.3730000   2.1030000  11.3590000
  -6.2470000   1.2540000  11.1980000 -12.1350000 -13.6220000  18.0400000
 -12.9000000 -14.0190000  18.4570000 -12.3890000 -12.7110000  17.8910000
 -12.2660000 -13.5560000  18.0740000 -15.6160000 -15.7910000   3.0670000
 -15.3090000 -15.7260000   3.9710000 -16.5350000 -16.0490000   3.1460000
 -15.6940000 -15.8160000   3.1930000  -4.5540000 -15.8380000  14.3830000
  -4.8410000 -15.0120000  14.7740000  -4.7770000 -15.7540000  13.4560000
  -4.6200000 -15.7210000  14.3150000 -12.8200000 -15.6830000   8.7350000
 -12.9980000 -15.0930000   8.0030000 -12.3350000 -16.4100000   8.3450000
 -12.7810000 -15.7000000   8.5920000 -19.2150000  -9.0930000   7.3120000
 -18.6180000  -8.8370000   6.6080000 -18.9120000  -8.5980000   8.0740000
 -19.1000000  -8.9970000   7.3190000  -6.3660000 -11.7620000  18.0720000
  -7.1500000 -11.8010000  18.6200000  -5.7290000 -12.3130000  18.5260000
  -6.3850000 -11.8370000  18.2000000  -0.7700000 -17.9700000   7.6060000
  -1.3660000 -18.3200000   8.2680000  -0.0520000 -18.6020000   7.5710000
  -0.7540000 -18.0950000   7.6860000  -4.9710000 -13.2390000  15.2750000
  -4.2780000 -13.0450000  15.9070000  -5.6070000 -12.5330000  15.3930000
  -4.9640000 -13.1240000  15.3710000 -12.3940000 -16.2980000  -5.2660000
 -12.1660000 -16.3260000  -4.3370000 -13.0230000 -17.0100000  -5.3790000
 -12.4450000 -16.3930000  -5.1610000 -14.9950000  -2.1120000  -5.0060000
 -15.9490000  -2.1800000  -5.0380000 -14.8060000  -1.8050000  -4.1200000
 -15.0930000  -2.0810000  -4.8970000 -14.4780000 -18.0120000  -5.7600000
 -15.0380000 -17.5640000  -5.1260000 -14.6240000 -18.9430000  -5.5930000
 -14.5680000 -18.0740000  -5.6580000 -13.6590000  -9.7710000 -16.5120000
 -13.8140000  -9.3140000 -15.6850000 -12.9470000 -10.3810000 -16.3200000
 -13.5880000  -9.7910000 -16.3820000 -10.2640000 -14.5620000  -5.9070000
 -10.8670000 -15.2030000  -5.5320000  -9.4750000 -14.6310000  -5.3690000
 -10.2400000 -14.6520000  -5.7900000  -9.7260000 -18.1250000   0.3710000
  -8.8340000 -18.3540000   0.1070000 -10.2480000 -18.2460000  -0.4220000
  -9.6780000 -18.1690000   0.2360000 -16.7720000  -3.5150000 -11.5490000
 -16.7350000  -2.6220000 -11.8930000 -17.5710000  -3.5360000 -11.0230000
 -16.8690000  -3.4030000 -11.5260000  -7.8410000 -14.7360000  -4.6390000
  -7.6630000 -15.6180000  -4.3130000  -7.5220000 -14.1560000  -3.9470000
  -7.7770000 -14.7750000  -4.5080000  -2.4010000 -16.1080000 -13.1400000
  -2.3330000 -17.0550000 -13.2640000  -1.5320000 -15.8430000 -12.8390000
  -2.2810000 -16.1950000 -13.1170000 -18.8270000 -14.1710000  -5.3100000
 -18.5500000 -13.6020000  -4.5920000 -19.4290000 -14.7940000  -4.9030000
 -18.8680000 -14.1780000  -5.1660000 -17.9540000  -7.8340000  -2.7170000
 -18.8750000  -8.0540000  -2.8570000 -17.8750000  -7.7270000  -1.7700000
 -18.0620000  -7.8490000  -2.6140000  -3.0140000 -15.8820000 -16.0130000
  -2.8820000 -16.0260000 -15.0760000  -3.8820000 -15.4830000 -16.0730000
  -3.1080000 -15.8500000 -15.9000000 -14.2520000 -13.5650000 -11.7400000
 -14.6590000 -13.5660000 -12.6070000 -14.7380000 -12.9020000 -11.2490000
 -14.3660000 -13.4800000 -11.7880000 -16.1340000 -17.1690000  -3.7220000
 -15.9260000 -16.2710000  -3.4650000 -16.4890000 -17.5700000  -2.9290000
 -16.1520000 -17.1060000  -3.5880000 -14.8250000 -16.3780000 -13.0220000
 -15.5840000 -16.3910000 -12.4370000 -14.2930000 -17.1220000 -12.7410000
 -14.8540000 -16.4750000 -12.9110000  -7.7850000 -12.6800000  -2.7230000
  -7.1990000 -12.3670000  -2.0340000  -8.5110000 -12.0550000  -2.7230000
  -7.8030000 -12.5600000  -2.6350000 -10.1650000 -12.1790000 -13.1910000
 -10.9900000 -12.1970000 -13.6760000 -10.4160000 -12.3650000 -12.2860000
 -10.3030000 -12.2050000 -13.1370000 -18.2650000 -14.1670000   0.3310000
 -18.4630000 -14.0860000  -0.6010000 -19.0580000 -13.8640000   0.7720000
 -18.3910000 -14.1180000   0.2680000 -15.3400000 -10.5570000 -18.5210000
 -15.9430000  -9.8200000 -18.6170000 -14.7110000 -10.2670000 -17.8600000
 -15.3370000 -10.4260000 -18.4490000 -10.9130000  -2.0950000 -17.2280000
 -10.4540000  -2.9170000 -17.0560000 -10.2150000  -1.4550000 -17.3670000
 -10.7650000  -2.1180000 -17.2240000 -12.1900000 -11.6040000  -8.2460000
 -11.3090000 -11.3120000  -8.0140000 -12.1040000 -11.9380000  -9.1390000
 -12.0660000 -11.6090000  -8.3310000 -18.2960000  -5.1410000  -0.9120000
 -19.0580000  -4.5730000  -1.0290000 -18.0910000  -5.4510000  -1.7940000
 -18.3680000  -5.1080000  -1.0400000 -12.5990000  -2.1100000  -0.7770000
 -12.0250000  -2.1970000  -0.0160000 -12.6410000  -1.1680000  -0.9390000
 -12.5310000  -2.0010000  -0.7010000 -12.2440000  -8.2560000  -0.8760000
 -12.4010000  -9.2000000  -0.9120000 -12.3340000  -7.9640000  -1.7830000
 -12.2760000  -8.3400000  -0.9970000  -5.4140000 -14.4600000 -16.1980000
  -5.3100000 -14.1160000 -15.3110000  -5.5440000 -13.6840000 -16.7430000
  -5.4170000 -14.3170000 -16.1540000  -2.7720000 -13.6120000  -8.8710000
  -1.8600000 -13.6010000  -8.5780000  -2.7720000 -14.1970000  -9.6290000
  -2.6550000 -13.6860000  -8.9300000 -15.2180000  -2.3590000  -1.8620000
 -15.4700000  -1.4550000  -1.6710000 -14.3140000  -2.4240000  -1.5590000
 -15.1340000  -2.2510000  -1.7990000 -13.1850000 -17.2860000 -18.2110000
 -12.8430000 -17.2770000 -17.3170000 -13.6700000 -16.4640000 -18.2890000
 -13.2030000 -17.1790000 -18.1070000 -18.0160000 -17.3700000  -8.3070000
 -17.1830000 -16.9160000  -8.4310000 -18.6040000 -16.9710000  -8.9470000
 -17.9850000 -17.2610000  -8.4040000 -16.9170000 -18.2370000  -1.2950000
 -17.7500000 -18.6640000  -1.0940000 -16.9510000 -17.4100000  -0.8150000
 -17.0280000 -18.1860000  -1.2080000 -10.5820000 -12.7750000 -10.5570000
 -10.4960000 -13.5590000 -10.0140000 -10.1420000 -12.0880000 -10.0570000
 -10.5150000 -12.7870000 -10.4240000  -1.9200000 -15.1570000  -1.2170000
  -2.8190000 -15.4850000  -1.2220000  -1.5950000 -15.3340000  -2.0990000
  -1.9940000 -15.2220000  -1.3300000  -3.4860000 -18.6360000 -16.3430000
  -3.3580000 -17.7210000 -16.5950000  -4.4350000 -18.7310000 -16.2580000
  -3.5910000 -18.5310000 -16.3640000 -17.5070000  -0.5530000 -14.0380000
 -18.2890000  -0.6840000 -14.5760000 -17.5370000   0.3720000 -13.7940000
 -17.6110000  -0.4510000 -14.0760000 -11.6110000 -11.7860000  -4.9610000
 -12.4560000 -12.1060000  -4.6440000 -11.1380000 -12.5770000  -5.2200000
 -11.6590000 -11.9280000  -4.9530000 -14.6840000  -6.6000000  -0.6270000
 -13.8730000  -7.0880000  -0.7690000 -14.9530000  -6.3230000  -1.5030000
 -14.6150000  -6.6270000  -0.7580000 -15.7760000  -2.0280000 -15.5040000
 -16.3580000  -1.5300000 -14.9310000 -15.5470000  -1.4170000 -16.2040000
 -15.8210000  -1.8860000 -15.5200000  -1.8830000 -15.9190000  -3.7860000
  -2.7490000 -16.0830000  -4.1570000  -1.3010000 -16.5110000  -4.2640000
  -1.9190000 -16.0160000  -3.8950000  -2.0640000 -10.0420000  -0.7560000
  -2.8870000  -9.7020000  -1.1050000  -2.2080000 -10.0980000   0.1890000
  -2.1870000 -10.0060000  -0.6800000  -8.1510000 -13.3160000 -14.4170000
  -8.9740000 -13.0330000 -14.0210000  -7.4730000 -12.9300000 -13.8620000
  -8.1690000 -13.2310000 -14.2950000 -14.9910000 -15.2520000  -0.2340000
 -15.1440000 -14.9720000  -1.1360000 -15.2280000 -14.4920000   0.2970000
 -15.0410000 -15.1190000  -0.2810000 -14.0130000 -12.8040000  -6.2820000
 -14.6030000 -13.5430000  -6.4340000 -13.4010000 -12.8320000  -7.0170000
 -14.0100000 -12.9020000  -6.3960000 -19.0450000 -10.8570000 -14.4310000
 -18.3800000 -10.2570000 -14.0930000 -19.8770000 -10.4230000 -14.2420000
 -19.0660000 -10.7250000 -14.3630000 -16.7130000  -6.4120000 -12.2290000
 -16.0340000  -6.6920000 -11.6150000 -16.6140000  -5.4620000 -12.2780000
 -16.6130000  -6.3260000 -12.1560000 -11.2980000  -7.6760000 -17.1420000
 -11.6810000  -7.9850000 -17.9630000 -11.0590000  -6.7650000 -17.3170000
 -11.3160000  -7.5990000 -17.2690000 -17.0420000 -16.2210000 -11.4640000
 -17.2800000 -17.0400000 -11.8980000 -17.8030000 -15.6530000 -11.5910000
 -17.1700000 -16.2530000 -11.5360000 -12.4710000 -17.4060000 -15.4600000
 -12.2260000 -18.2810000 -15.1590000 -12.6860000 -16.9290000 -14.6590000
 -12.4670000 -17.4570000 -15.3190000 -15.6340000 -13.1410000 -17.4260000
 -16.5580000 -13.3840000 -17.3880000 -15.6370000 -12.2210000 -17.6910000
 -15.7510000 -13.0540000 -17.4550000 -13.6640000  -8.7880000 -14.1370000
 -12.8410000  -8.3020000 -14.1750000 -13.6130000  -9.2830000 -13.3200000
 -13.5520000  -8.7890000 -14.0380000  -4.3260000 -12.2840000 -17.9710000
  -3.8480000 -12.6370000 -18.7200000  -3.8240000 -11.5120000 -17.7080000
  -4.2010000 -12.2300000 -18.0330000 -15.4330000  -6.8480000  -3.1410000
 -15.4700000  -6.5310000  -4.0430000 -16.3040000  -7.2070000  -2.9760000
 -15.5490000  -6.8540000  -3.2350000  -2.4740000 -21.2050000  -8.5720000
  -2.3280000 -20.7990000  -7.7170000  -3.4190000 -21.1360000  -8.7110000
  -2.5760000 -21.1440000  -8.4800000  -6.3860000 -11.0690000 -10.8580000
  -5.8880000 -11.2760000 -11.6490000  -6.2020000 -10.1440000 -10.6940000
  -6.2990000 -10.9770000 -10.9380000 -11.7610000 -12.3230000 -17.1170000
 -12.2420000 -13.1400000 -17.2480000 -11.3270000 -12.1640000 -17.9550000
 -11.7670000 -12.4070000 -17.2410000 -17.7970000  -7.2860000 -16.6590000
 -17.0300000  -7.6090000 -16.1840000 -18.5400000  -7.5250000 -16.1040000
 -17.7950000  -7.3580000 -16.5270000 -18.4600000 -13.5300000  -7.9630000
 -17.6610000 -13.8800000  -8.3580000 -18.4790000 -13.9100000  -7.0850000
 -18.3600000 -13.6240000  -7.9010000 -16.3740000  -8.7430000  -9.2500000
 -15.4170000  -8.7590000  -9.2690000 -16.6190000  -9.5570000  -8.8100000
 -16.2840000  -8.8490000  -9.1960000  -6.0710000 -14.7330000  -6.7110000
  -6.5250000 -14.2910000  -7.4290000  -6.6130000 -14.5580000  -5.9420000
  -6.1980000 -14.6540000  -6.7050000  -7.5080000 -16.5120000 -16.1450000
  -8.2670000 -16.2640000 -16.6730000  -6.9530000 -15.7320000 -16.1440000
  -7.5340000 -16.3800000 -16.2120000 -14.9740000 -13.2190000 -14.4280000
 -15.0640000 -13.4900000 -15.3410000 -15.8710000 -13.0620000 -14.1350000
 -15.1000000 -13.2330000 -14.5070000  -3.7730000 -12.0960000  -6.2530000
  -4.0380000 -12.7480000  -5.6030000  -3.5540000 -12.6090000  -7.0310000
  -3.7790000 -12.2450000  -6.2690000 -11.3710000 -15.4430000  -2.7880000
 -10.4490000 -15.3670000  -2.5440000 -11.8230000 -14.8260000  -2.2130000
 -11.3110000 -15.3550000  -2.6840000 -14.3800000 -18.4330000  -9.8690000
 -14.2090000 -17.5120000  -9.6700000 -13.8140000 -18.9170000  -9.2680000
 -14.2860000 -18.3770000  -9.7670000 -10.5770000  -5.0960000 -17.7450000
  -9.7330000  -5.1340000 -17.2940000 -10.3540000  -4.8910000 -18.6530000
 -10.4400000  -5.0750000 -17.8030000  -2.7200000 -18.5670000  -0.0530000
  -3.2610000 -19.0820000   0.5450000  -3.1840000 -17.7340000  -0.1400000
  -2.8480000 -18.5260000   0.0130000  -1.3510000 -11.0160000  -4.8550000
  -2.2470000 -11.3410000  -4.9420000  -1.4510000 -10.1210000  -4.5300000
  -1.4790000 -10.9430000  -4.8240000  -9.1550000  -9.3290000 -16.8170000
  -8.4250000  -8.7090000 -16.8280000  -9.9370000  -8.7780000 -16.8480000
  -9.1620000  -9.1790000 -16.8230000  -9.5230000 -11.9480000  -7.7010000
  -9.9720000 -12.7020000  -7.3190000  -8.8010000 -12.3280000  -8.2010000
  -9.4880000 -12.0930000  -7.7160000 -12.5000000 -15.2110000 -13.7180000
 -12.6480000 -14.2680000 -13.7960000 -13.2920000 -15.5430000 -13.2940000
 -12.6200000 -15.1330000 -13.6740000  -8.8490000 -14.8670000  -1.2990000
  -9.3150000 -14.2690000  -0.7150000  -8.2540000 -14.3030000  -1.7940000
  -8.8330000 -14.7190000  -1.2880000 -13.2440000 -14.7220000 -17.1230000
 -14.1610000 -14.9370000 -16.9570000 -12.7690000 -15.1100000 -16.3880000
 -13.3010000 -14.7990000 -17.0080000 -16.6020000  -9.9760000  -3.8520000
 -17.2810000  -9.3370000  -3.6320000 -17.0120000 -10.8250000  -3.6890000
 -16.7420000 -10.0030000  -3.8030000 -18.4540000 -17.0670000  -5.2700000
 -17.5920000 -17.1060000  -4.8560000 -18.2680000 -16.9170000  -6.1970000
 -18.3200000 -17.0530000  -5.3360000 -18.9950000 -11.8960000  -1.2830000
 -19.5950000 -11.1630000  -1.1420000 -18.4480000 -11.9130000  -0.4970000
 -19.0020000 -11.8040000  -1.1640000 -17.6400000 -12.9950000 -13.2400000
 -17.2390000 -12.4100000 -12.5960000 -18.1030000 -12.4100000 -13.8390000
 -17.6470000 -12.8450000 -13.2340000  -7.3380000 -16.9790000  -1.2030000
  -7.3410000 -17.2690000  -2.1150000  -8.0100000 -16.2980000  -1.1660000
  -7.4250000 -16.9290000  -1.3150000 -15.6790000 -18.3160000 -17.1950000
 -15.6780000 -17.5740000 -16.5910000 -15.1750000 -18.0120000 -17.9490000
 -15.6140000 -18.1820000 -17.2140000 -14.7630000  -6.2800000 -16.9110000
 -14.6770000  -6.3310000 -17.8630000 -15.3160000  -5.5120000 -16.7620000
 -14.8230000  -6.1880000 -17.0140000  -3.2780000 -12.8410000  -1.5740000
  -2.5650000 -13.4730000  -1.4790000  -2.8380000 -12.0040000  -1.7200000
  -3.1310000 -12.8150000  -1.5810000 -17.2500000 -11.0590000  -8.0520000
 -18.0280000 -10.5530000  -7.8210000 -17.5120000 -11.9720000  -7.9290000
 -17.3820000 -11.1110000  -8.0070000 -18.5220000 -15.8180000 -15.7410000
 -18.5790000 -16.0720000 -16.6620000 -19.0700000 -15.0360000 -15.6730000
 -18.6000000 -15.7500000 -15.8500000 -14.0510000 -11.7610000  -3.7620000
 -14.1420000 -11.8810000  -4.7070000 -14.7750000 -11.1830000  -3.5240000
 -14.1550000 -11.7020000  -3.8530000 -12.9690000 -18.2450000 -12.3100000
 -13.3740000 -18.5760000 -11.5080000 -12.8620000 -19.0190000 -12.8620000
 -13.0070000 -18.3860000 -12.2780000 -12.4260000 -12.1990000 -14.4240000
 -12.0530000 -12.2640000 -15.3030000 -13.3310000 -12.4950000 -14.5250000
 -12.4940000 -12.2460000 -14.5490000 -12.7270000  -5.0420000 -15.9900000
 -13.4590000  -5.5310000 -16.3660000 -12.0670000  -5.0290000 -16.6820000
 -12.7370000  -5.1030000 -16.1260000 -10.2810000 -15.3020000 -12.0390000
 -11.1330000 -15.4400000 -12.4510000 -10.2310000 -14.3550000 -11.9030000
 -10.3830000 -15.1980000 -12.0740000 -15.4090000 -14.6340000  -2.8480000
 -14.6180000 -14.6010000  -3.3850000 -15.7690000 -13.7480000  -2.8960000
 -15.3540000 -14.5170000  -2.9230000  -4.2530000 -16.3810000  -1.3790000
  -4.1920000 -16.7280000  -2.2690000  -5.1930000 -16.3330000  -1.2050000
  -4.3660000 -16.4190000  -1.4710000  -9.5630000 -17.1280000 -13.9480000
  -9.7880000 -16.3430000 -13.4490000  -8.6640000 -16.9760000 -14.2400000
  -9.4760000 -17.0080000 -13.9210000  -4.1360000 -17.4080000  -9.0780000
  -3.2650000 -17.8010000  -9.0210000  -4.2350000 -17.1770000 -10.0010000
  -4.0370000 -17.4290000  -9.1890000  -7.2280000 -17.1410000  -3.9440000
  -7.4880000 -17.9170000  -4.4410000  -6.2720000 -17.1360000  -3.9920000
  -7.1390000 -17.2400000  -4.0140000  -4.1110000 -13.5430000 -13.8300000
  -4.3320000 -13.7930000 -12.9320000  -3.2950000 -14.0090000 -14.0130000
  -4.0350000 -13.6350000 -13.7380000 -10.3080000 -14.9930000  -8.6630000
 -11.1590000 -15.4240000  -8.7500000 -10.2090000 -14.8460000  -7.7220000
 -10.4050000 -15.0290000  -8.5540000 -11.6770000 -17.9720000  -1.5120000
 -12.2300000 -17.6610000  -0.7960000 -11.6160000 -17.2260000  -2.1090000
 -11.7400000 -17.8370000  -1.4970000  -1.4200000 -13.5190000 -15.9940000
  -2.2430000 -14.0060000 -16.0420000  -1.6720000 -12.6550000 -15.6660000
  -1.5570000 -13.4710000 -15.9580000 -18.2360000  -4.4640000  -4.4710000
 -18.6180000  -3.6210000  -4.2270000 -17.4120000  -4.2380000  -4.9020000
 -18.1800000  -4.3270000  -4.4950000 -16.3340000 -14.8380000  -9.0490000
 -16.4270000 -15.3050000  -9.8790000 -15.5100000 -15.1610000  -8.6840000
 -16.2400000 -14.9390000  -9.1080000 -14.1700000 -15.5800000  -7.7930000
 -13.7180000 -16.1590000  -7.1790000 -13.6070000 -15.5650000  -8.5660000
 -14.0400000 -15.6520000  -7.8130000 -17.5880000 -12.4800000  -3.5240000
 -18.1550000 -12.1190000  -4.2060000 -18.0850000 -12.3640000  -2.7140000
 -17.7240000 -12.4190000  -3.5080000 -16.9750000  -9.0810000 -13.7640000
 -16.0190000  -9.0490000 -13.7370000 -17.2460000  -8.1640000 -13.7260000
 -16.8870000  -8.9600000 -13.7560000 -12.1350000 -13.6220000  -0.8210000
 -12.9000000 -14.0190000  -0.4030000 -12.3890000 -12.7110000  -0.9690000
 -12.2660000 -13.5560000  -0.7860000 -15.6160000 -15.7910000 -15.7930000
 -15.3090000 -15.7260000 -14.8890000 -16.5350000 -16.0490000 -15.7140000
 -15.6940000 -15.8160000 -15.6670000 -19.6870000  -5.4780000 -17.4480000
 -19.0600000  -6.0010000 -16.9490000 -19.1930000  -5.1720000 -18.2090000
 -19.5430000  -5.5060000 -17.4810000  -4.5540000 -15.8380000  -4.4770000
  -4.8410000 -15.0120000  -4.0860000  -4.7770000 -15.7540000  -5.4040000
  -4.6200000 -15.7210000  -4.5450000 -18.1100000  -1.7120000 -17.9900000
 -17.5520000  -2.4710000 -17.8180000 -17.5410000  -0.9580000 -17.8340000
 -17.9650000  -1.7130000 -17.9480000  -0.5390000 -14.5020000 -11.9910000
   0.0430000 -14.0170000 -12.5770000  -1.1050000 -13.8320000 -11.6080000
  -0.5370000 -14.3540000 -12.0170000 -12.8200000 -15.6830000 -10.1250000
 -12.9980000 -15.0930000 -10.8570000 -12.3350000 -16.4100000 -10.5150000
 -12.7810000 -15.7000000 -10.2680000 -16.5350000  -5.5860000  -7.7430000
 -16.2750000  -4.8930000  -8.3510000 -17.4060000  -5.3270000  -7.4440000
 -16.6120000  -5.4640000  -7.7830000  -6.3660000 -11.7620000  -0.7880000
  -7.1500000 -11.8010000  -0.2400000  -5.7290000 -12.3130000  -0.3340000
  -6.3850000 -11.8370000  -0.6600000  -0.7700000 -17.9700000 -11.2540000
  -1.3660000 -18.3200000 -10.5920000  -0.0520000 -18.6020000 -11.2890000
  -0.7540000 -18.0950000 -11.1740000  -4.9710000 -13.2390000  -3.5850000
  -4.2780000 -13.0450000  -2.9530000  -5.6070000 -12.5330000  -3.4670000
  -4.9640000 -13.1240000  -3.4890000 -12.3940000 -16.2980000 -24.1260000
 -12.1660000 -16.3260000 -23.1970000 -13.0230000 -17.0100000 -24.2390000
 -12.4450000 -16.3930000 -24.0210000 -14.9950000  -2.1120000 -23.8660000
 -15.9490000  -2.1800000 -23.8980000 -14.8060000  -1.8050000 -22.9800000
 -15.0930000  -2.0810000 -23.7570000 -10.2300000  -4.6680000 -30.7030000
 -10.4040000  -4.5070000 -29.7750000 -10.9950000  -5.1540000 -31.0090000
 -10.3500000  -4.7100000 -30.6230000 -14.4780000 -18.0120000 -24.6200000
 -15.0380000 -17.5640000 -23.9860000 -14.6240000 -18.9430000 -24.4530000
 -14.5680000 -18.0740000 -24.5180000 -13.6590000  -9.7710000 -35.3720000
 -13.8140000  -9.3140000 -34.5450000 -12.9470000 -10.3810000 -35.1800000
 -13.5880000  -9.7910000 -35.2420000 -10.2640000 -14.5620000 -24.7670000
 -10.8670000 -15.2030000 -24.3920000  -9.4750000 -14.6310000 -24.2290000
 -10.2400000 -14.6520000 -24.6500000  -9.7260000 -18.1250000 -18.4890000
  -8.8340000 -18.3540000 -18.7530000 -10.2480000 -18.2460000 -19.2820000
  -9.6780000 -18.1690000 -18.6240000  -3.4980000  -3.6120000 -37.1860000
  -4.3600000  -3.2840000 -37.4420000  -3.5940000  -4.5640000 -37.1870000
  -3.6210000  -3.6920000 -37.2190000 -16.7720000  -3.5150000 -30.4090000
 -16.7350000  -2.6220000 -30.7530000 -17.5710000  -3.5360000 -29.8830000
 -16.8690000  -3.4030000 -30.3860000 -12.0610000  -1.7250000 -33.7200000
 -12.8600000  -2.2520000 -33.7100000 -11.7170000  -1.8280000 -34.6070000
 -12.1190000  -1.8060000 -33.8320000  -7.8410000 -14.7360000 -23.4990000
  -7.6630000 -15.6180000 -23.1730000  -7.5220000 -14.1560000 -22.8070000
  -7.7770000 -14.7750000 -23.3680000  -8.1530000  -6.7400000 -31.2530000
  -8.5790000  -7.3470000 -31.8570000  -8.8160000  -6.0730000 -31.0750000
  -8.2920000  -6.7320000 -31.3070000  -2.4010000 -16.1080000 -32.0000000
  -2.3330000 -17.0550000 -32.1240000  -1.5320000 -15.8430000 -31.6990000
  -2.2810000 -16.1950000 -31.9770000  -1.2820000 -11.8170000 -30.1590000
  -2.0610000 -11.7070000 -29.6140000  -0.9380000 -10.9310000 -30.2680000
  -1.3380000 -11.6900000 -30.1030000 -10.1860000 -15.6890000 -36.0110000
 -10.4520000 -16.1520000 -35.2160000 -10.1700000 -16.3660000 -36.6870000
 -10.2180000 -15.8350000 -35.9950000  -9.9510000  -8.5010000 -22.7270000
 -10.0790000  -9.3660000 -22.3380000  -9.5080000  -8.6760000 -23.5580000
  -9.9110000  -8.6340000 -22.7840000  -7.0750000  -7.5490000 -35.7080000
  -6.3050000  -7.5280000 -35.1410000  -6.7560000  -7.9160000 -36.5320000
  -6.9360000  -7.5930000 -35.7410000 -18.8270000 -14.1710000 -24.1700000
 -18.5500000 -13.6020000 -23.4520000 -19.4290000 -14.7940000 -23.7630000
 -18.8680000 -14.1780000 -24.0260000  -3.3570000  -6.3120000 -36.9610000
  -3.3150000  -6.4460000 -37.9080000  -2.4710000  -6.0450000 -36.7180000
  -3.2380000  -6.2950000 -37.0510000 -17.9540000  -7.8340000 -21.5770000
 -18.8750000  -8.0540000 -21.7170000 -17.8750000  -7.7270000 -20.6300000
 -18.0620000  -7.8490000 -21.4740000  -3.0140000 -15.8820000 -34.8730000
  -2.8820000 -16.0260000 -33.9360000  -3.8820000 -15.4830000 -34.9330000
  -3.1080000 -15.8500000 -34.7600000  -6.3640000  -4.1450000 -30.3720000
  -6.1880000  -3.2950000 -30.7750000  -7.1230000  -4.4820000 -30.8460000
  -6.4380000  -4.0790000 -30.4840000  -6.5740000  -0.8200000 -29.1200000
  -5.9880000  -0.0830000 -29.2950000  -7.3560000  -0.6340000 -29.6390000
  -6.5990000  -0.7020000 -29.2090000 -14.2520000 -13.5650000 -30.6000000
 -14.6590000 -13.5660000 -31.4670000 -14.7380000 -12.9020000 -30.1090000
 -14.3660000 -13.4800000 -30.6480000 -16.1340000 -17.1690000 -22.5820000
 -15.9260000 -16.2710000 -22.3250000 -16.4890000 -17.5700000 -21.7890000
 -16.1520000 -17.1060000 -22.4480000 -14.8250000 -16.3780000 -31.8820000
 -15.5840000 -16.3910000 -31.2970000 -14.2930000 -17.1220000 -31.6010000
 -14.8540000 -16.4750000 -31.7710000  -7.7850000 -12.6800000 -21.5830000
  -7.1990000 -12.3670000 -20.8940000  -8.5110000 -12.0550000 -21.5830000
  -7.8030000 -12.5600000 -21.4950000 -10.1650000 -12.1790000 -32.0510000
 -10.9900000 -12.1970000 -32.5360000 -10.4160000 -12.3650000 -31.1460000
 -10.3030000 -12.2050000 -31.9970000 -13.0510000  -2.5140000 -27.4340000
 -13.3120000  -2.8890000 -26.5930000 -12.3200000  -3.0590000 -27.7230000
 -12.9910000  -2.6320000 -27.3640000 -14.8140000  -4.3210000 -28.7190000
 -15.5370000  -4.0180000 -29.2670000 -14.2190000  -3.5710000 -28.6710000
 -14.8290000  -4.1860000 -28.7830000 -18.2650000 -14.1670000 -18.5290000
 -18.4630000 -14.0860000 -19.4610000 -19.0580000 -13.8640000 -18.0880000
 -18.3910000 -14.1180000 -18.5920000 -15.3400000 -10.5570000 -37.3810000
 -15.9430000  -9.8200000 -37.4770000 -14.7110000 -10.2670000 -36.7200000
 -15.3370000 -10.4260000 -37.3090000 -10.9130000  -2.0950000 -36.0880000
 -10.4540000  -2.9170000 -35.9160000 -10.2150000  -1.4550000 -36.2270000
 -10.7650000  -2.1180000 -36.0840000 -12.1900000 -11.6040000 -27.1060000
 -11.3090000 -11.3120000 -26.8740000 -12.1040000 -11.9380000 -27.9990000
 -12.0660000 -11.6090000 -27.1910000 -18.2960000  -5.1410000 -19.7720000
 -19.0580000  -4.5730000 -19.8890000 -18.0910000  -5.4510000 -20.6540000
 -18.3680000  -5.1080000 -19.9000000 -12.5990000  -2.1100000 -19.6370000
 -12.0250000  -2.1970000 -18.8760000 -12.6410000  -1.1680000 -19.7990000
 -12.5310000  -2.0010000 -19.5610000  -7.8930000 -15.7850000 -28.9220000
  -8.8450000 -15.8480000 -28.8510000  -7.5650000 -16.5130000 -28.3940000
  -7.9730000 -15.8860000 -28.8450000  -2.7640000  -7.7770000 -26.8000000
  -2.3240000  -7.2700000 -26.1170000  -3.4360000  -8.2740000 -26.3340000
  -2.7930000  -7.7760000 -26.6530000  -1.5490000  -6.0090000 -24.5720000
  -2.2630000  -5.4040000 -24.7710000  -0.8330000  -5.4460000 -24.2750000
  -1.5480000  -5.8600000 -24.5590000 -12.2440000  -8.2560000 -19.7360000
 -12.4010000  -9.2000000 -19.7720000 -12.3340000  -7.9640000 -20.6430000
 -12.2760000  -8.3400000 -19.8570000  -8.0370000  -4.9480000 -35.6340000
  -7.7330000  -5.8410000 -35.4780000  -7.5100000  -4.4080000 -35.0450000
  -7.9310000  -4.9930000 -35.5390000  -5.4140000 -14.4600000 -35.0580000
  -5.3100000 -14.1160000 -34.1710000  -5.5440000 -13.6840000 -35.6030000
  -5.4170000 -14.3170000 -35.0140000  -2.7720000 -13.6120000 -27.7310000
  -1.8600000 -13.6010000 -27.4380000  -2.7720000 -14.1970000 -28.4890000
  -2.6550000 -13.6860000 -27.7900000  -4.9270000  -9.2750000 -25.8800000
  -5.8020000  -9.5320000 -26.1700000  -4.5750000 -10.0580000 -25.4560000
  -4.9940000  -9.4080000 -25.8630000 -13.1850000 -17.2860000 -37.0710000
 -12.8430000 -17.2770000 -36.1770000 -13.6700000 -16.4640000 -37.1490000
 -13.2030000 -17.1790000 -36.9670000 -18.0160000 -17.3700000 -27.1670000
 -17.1830000 -16.9160000 -27.2910000 -18.6040000 -16.9710000 -27.8070000
 -17.9850000 -17.2610000 -27.2640000 -16.9170000 -18.2370000 -20.1550000
 -17.7500000 -18.6640000 -19.9540000 -16.9510000 -17.4100000 -19.6750000
 -17.0280000 -18.1860000 -20.0680000 -10.5820000 -12.7750000 -29.4170000
 -10.4960000 -13.5590000 -28.8740000 -10.1420000 -12.0880000 -28.9170000
 -10.5150000 -12.7870000 -29.2840000  -1.9040000  -4.0350000 -34.0810000
  -1.7830000  -3.1600000 -34.4490000  -1.6950000  -4.6290000 -34.8020000
  -1.8620000  -3.9990000 -34.2210000  -3.4860000 -18.6360000 -35.2030000
  -3.3580000 -17.7210000 -35.4550000  -4.4350000 -18.7310000 -35.1180000
  -3.5910000 -18.5310000 -35.2240000 -17.5070000  -0.5530000 -32.8980000
 -18.2890000  -0.6840000 -33.4360000 -17.5370000   0.3720000 -32.6540000
 -17.6110000  -0.4510000 -32.9360000 -11.1540000  -4.2870000 -28.2080000
 -11.6340000  -5.0950000 -28.0310000 -10.4240000  -4.3010000 -27.5890000
 -11.1220000  -4.3920000 -28.1060000  -0.3110000 -17.2980000 -37.2020000
  -0.4870000 -16.4570000 -37.6230000  -1.1200000 -17.7970000 -37.3160000
  -0.4370000 -17.2540000 -37.2700000   2.2580000 -11.3700000 -29.8240000
   2.2720000 -11.6830000 -28.9190000   2.2090000 -10.4170000 -29.7470000
   2.2540000 -11.2880000 -29.6980000  -8.3490000 -13.4340000 -35.9410000
  -8.9750000 -14.1580000 -35.9170000  -8.1310000 -13.2750000 -35.0230000
  -8.4010000 -13.5060000 -35.8210000 -11.6110000 -11.7860000 -23.8210000
 -12.4560000 -12.1060000 -23.5040000 -11.1380000 -12.5770000 -24.0800000
 -11.6590000 -11.9280000 -23.8130000 -15.7760000  -2.0280000 -34.3640000
 -16.3580000  -1.5300000 -33.7910000 -15.5470000  -1.4170000 -35.0640000
 -15.8210000  -1.8860000 -34.3800000  -1.8830000 -15.9190000 -22.6460000
  -2.7490000 -16.0830000 -23.0170000  -1.3010000 -16.5110000 -23.1240000
  -1.9190000 -16.0160000 -22.7550000  -2.1770000 -10.4690000 -35.9400000
  -2.6340000 -10.7100000 -35.1340000  -1.2510000 -10.6090000 -35.7410000
  -2.1170000 -10.5180000 -35.8110000 -12.4220000  -7.5600000 -22.4590000
 -11.5420000  -7.9330000 -22.5110000 -12.9600000  -8.1410000 -22.9960000
 -12.3780000  -7.6820000 -22.5340000  -4.0520000 -14.7520000 -30.3520000
  -3.3560000 -15.1380000 -30.8850000  -4.6620000 -15.4740000 -30.1970000
  -4.0410000 -14.8940000 -30.4010000  -5.9780000  -9.3030000 -22.8100000
  -6.5350000  -9.6970000 -23.4820000  -6.5540000  -8.6930000 -22.3500000
  -6.1230000  -9.2750000 -22.8370000  -2.0640000 -10.0420000 -19.6160000
  -2.8870000  -9.7020000 -19.9650000  -2.2080000 -10.0980000 -18.6710000
  -2.1870000 -10.0060000 -19.5400000  -8.1510000 -13.3160000 -33.2770000
  -8.9740000 -13.0330000 -32.8810000  -7.4730000 -12.9300000 -32.7220000
  -8.1690000 -13.2310000 -33.1550000 -15.1390000  -9.7250000 -25.1840000
 -15.5160000  -9.8520000 -24.3140000 -15.7020000 -10.2360000 -25.7660000
 -15.2590000  -9.8060000 -25.1470000  -6.1320000  -8.2150000 -29.7290000
  -5.5870000  -7.7140000 -29.1220000  -6.8260000  -7.6080000 -29.9860000
  -6.1510000  -8.0740000 -29.6840000 -18.1490000  -6.6490000 -28.9080000
 -17.7550000  -6.7190000 -29.7780000 -17.5370000  -7.1040000 -28.3310000
 -18.0200000  -6.7160000 -28.9460000  -3.4280000 -10.9690000 -33.5360000
  -3.4710000 -10.3500000 -32.8060000  -3.7940000 -11.7800000 -33.1840000
  -3.4800000 -10.9930000 -33.3970000  -8.6780000 -10.1050000 -33.0570000
  -9.3500000 -10.7860000 -33.0270000  -8.5990000  -9.8880000 -33.9860000
  -8.7540000 -10.1640000 -33.1720000 -14.9910000 -15.2520000 -19.0940000
 -15.1440000 -14.9720000 -19.9960000 -15.2280000 -14.4920000 -18.5630000
 -15.0410000 -15.1190000 -19.1410000 -13.0590000 -11.1310000 -19.9880000
 -13.1730000 -11.4150000 -20.8950000 -13.9490000 -11.0280000 -19.6550000
 -13.1870000 -11.1540000 -20.0620000 -14.0130000 -12.8040000 -25.1420000
 -14.6030000 -13.5430000 -25.2940000 -13.4010000 -12.8320000 -25.8770000
 -14.0100000 -12.9020000 -25.2560000 -12.6280000  -6.6120000 -27.1100000
 -12.6680000  -7.5670000 -27.1470000 -13.0840000  -6.3840000 -26.3000000
 -12.6910000  -6.7050000 -27.0110000  -4.6630000  -9.9590000 -20.4280000
  -5.3540000 -10.5990000 -20.2600000  -4.8710000  -9.6030000 -21.2910000
  -4.7780000  -9.9960000 -20.5170000 -19.0450000 -10.8570000 -33.2910000
 -18.3800000 -10.2570000 -32.9530000 -19.8770000 -10.4230000 -33.1020000
 -19.0660000 -10.7250000 -33.2230000 -16.7130000  -6.4120000 -31.0890000
 -16.0340000  -6.6920000 -30.4750000 -16.6140000  -5.4620000 -31.1380000
 -16.6130000  -6.3260000 -31.0160000 -11.2980000  -7.6760000 -36.0020000
 -11.6810000  -7.9850000 -36.8230000 -11.0590000  -6.7650000 -36.1770000
 -11.3160000  -7.5990000 -36.1290000 -17.0420000 -16.2210000 -30.3240000
 -17.2800000 -17.0400000 -30.7580000 -17.8030000 -15.6530000 -30.4510000
 -17.1700000 -16.2530000 -30.3960000 -12.4710000 -17.4060000 -34.3200000
 -12.2260000 -18.2810000 -34.0190000 -12.6860000 -16.9290000 -33.5190000
 -12.4670000 -17.4570000 -34.1790000  -7.2390000 -15.6570000 -31.7820000
  -7.5330000 -14.9420000 -32.3460000  -7.5100000 -15.3960000 -30.9020000
  -7.3110000 -15.5320000 -31.7420000  -8.7850000  -4.0010000 -26.7000000
  -8.8490000  -4.5210000 -25.8980000  -8.2400000  -3.2520000 -26.4570000
  -8.7240000  -3.9720000 -26.5660000  -3.2860000  -5.1050000 -30.0810000
  -4.2010000  -5.0950000 -30.3640000  -3.1640000  -5.9730000 -29.6960000
  -3.3880000  -5.2150000 -30.0680000 -15.6340000 -13.1410000 -36.2860000
 -16.5580000 -13.3840000 -36.2480000 -15.6370000 -12.2210000 -36.5510000
 -15.7510000 -13.0540000 -36.3150000 -13.6640000  -8.7880000 -32.9970000
 -12.8410000  -8.3020000 -33.0350000 -13.6130000  -9.2830000 -32.1800000
 -13.5520000  -8.7890000 -32.8980000 -16.9740000  -0.9130000 -28.9210000
 -17.5150000  -0.4900000 -28.2540000 -16.0740000  -0.7160000 -28.6590000
 -16.9280000  -0.8330000 -28.8020000 -11.3690000  -7.1510000 -32.9950000
 -11.8920000  -6.4480000 -32.6090000 -11.3570000  -6.9550000 -33.9310000
 -11.4340000  -7.0360000 -33.0650000  -4.3260000 -12.2840000 -36.8310000
  -3.8480000 -12.6370000 -37.5800000  -3.8240000 -11.5120000 -36.5680000
  -4.2010000 -12.2300000 -36.8930000 -15.4330000  -6.8480000 -22.0010000
 -15.4700000  -6.5310000 -22.9030000 -16.3040000  -7.2070000 -21.8360000
 -15.5490000  -6.8540000 -22.0950000 -11.5240000  -5.1080000 -23.4260000
 -12.3070000  -4.7020000 -23.7950000 -11.8120000  -5.9790000 -23.1530000
 -11.6610000  -5.1680000 -23.4380000 -17.7860000  -3.0960000 -26.6830000
 -17.1310000  -2.7350000 -27.2800000 -18.4650000  -3.4510000 -27.2580000
 -17.7900000  -3.0950000 -26.8330000  -2.4740000 -21.2050000 -27.4320000
  -2.3280000 -20.7990000 -26.5770000  -3.4190000 -21.1360000 -27.5710000
  -2.5760000 -21.1440000 -27.3400000 -12.4980000  -9.1510000 -24.9470000
 -12.1730000  -9.9540000 -24.5400000 -13.3670000  -9.3830000 -25.2730000
 -12.5680000  -9.2830000 -24.9370000 -16.8820000  -8.2170000 -18.9780000
 -16.0790000  -7.7070000 -19.0880000 -17.3320000  -7.7990000 -18.2440000
 -16.8380000  -8.0980000 -18.8980000  -6.3860000 -11.0690000 -29.7180000
  -5.8880000 -11.2760000 -30.5090000  -6.2020000 -10.1440000 -29.5540000
  -6.2990000 -10.9770000 -29.7980000 -11.7610000 -12.3230000 -35.9770000
 -12.2420000 -13.1400000 -36.1080000 -11.3270000 -12.1640000 -36.8150000
 -11.7670000 -12.4070000 -36.1010000 -17.7970000  -7.2860000 -35.5190000
 -17.0300000  -7.6090000 -35.0440000 -18.5400000  -7.5250000 -34.9640000
 -17.7950000  -7.3580000 -35.3870000 -18.4600000 -13.5300000 -26.8230000
 -17.6610000 -13.8800000 -27.2180000 -18.4790000 -13.9100000 -25.9450000
 -18.3600000 -13.6240000 -26.7610000  -9.0650000 -10.4730000 -29.0950000
  -9.4720000  -9.7130000 -29.5110000  -8.2030000 -10.5380000 -29.5050000
  -9.0070000 -10.3840000 -29.2010000  -4.5280000  -9.2340000 -31.6130000
  -3.8540000  -8.8220000 -31.0730000  -5.3380000  -8.7880000 -31.3670000
  -4.5450000  -9.1240000 -31.5130000 -16.3740000  -8.7430000 -28.1100000
 -15.4170000  -8.7590000 -28.1290000 -16.6190000  -9.5570000 -27.6700000
 -16.2840000  -8.8490000 -28.0560000  -6.0710000 -14.7330000 -25.5710000
  -6.5250000 -14.2910000 -26.2890000  -6.6130000 -14.5580000 -24.8020000
  -6.1980000 -14.6540000 -25.5650000  -7.5320000 -13.2570000 -27.7610000
  -6.9060000 -12.8070000 -28.3280000  -7.6740000 -14.1040000 -28.1850000
  -7.4700000 -13.3080000 -27.8880000  -7.5080000 -16.5120000 -35.0050000
  -8.2670000 -16.2640000 -35.5330000  -6.9530000 -15.7320000 -35.0040000
  -7.5340000 -16.3800000 -35.0720000 -14.9740000 -13.2190000 -33.2880000
 -15.0640000 -13.4900000 -34.2010000 -15.8710000 -13.0620000 -32.9950000
 -15.1000000 -13.2330000 -33.3670000  -5.3860000 -17.3280000 -30.4920000
  -6.0480000 -16.9220000 -31.0520000  -4.6910000 -17.5910000 -31.0950000
  -5.3820000 -17.3090000 -30.6410000 -13.0270000 -10.3030000 -30.8880000
 -12.8390000 -11.0550000 -31.4500000 -12.1710000  -9.9120000 -30.7180000
 -12.8940000 -10.3490000 -30.9380000 -11.3710000 -15.4430000 -21.6480000
 -10.4490000 -15.3670000 -21.4040000 -11.8230000 -14.8260000 -21.0730000
 -11.3110000 -15.3550000 -21.5440000 -14.3800000 -18.4330000 -28.7290000
 -14.2090000 -17.5120000 -28.5300000 -13.8140000 -18.9170000 -28.1280000
 -14.2860000 -18.3770000 -28.6270000 -10.5770000  -5.0960000 -36.6050000
  -9.7330000  -5.1340000 -36.1540000 -10.3540000  -4.8910000 -37.5130000
 -10.4400000  -5.0750000 -36.6630000 -13.5260000  -9.3060000 -28.3360000
 -13.2690000  -9.7240000 -29.1580000 -13.4420000  -9.9980000 -27.6800000
 -13.4820000  -9.4480000 -28.3570000  -6.2140000  -4.8510000 -27.8770000
  -6.1160000  -4.6040000 -28.7970000  -7.0680000  -4.5010000 -27.6250000
  -6.3110000  -4.7750000 -27.9620000  -8.8240000  -0.4370000 -30.5380000
  -9.0090000  -1.2640000 -30.9840000  -9.1360000   0.2360000 -31.1430000
  -8.8880000  -0.4570000 -30.6730000  -2.7200000 -18.5670000 -18.9130000
  -3.2610000 -19.0820000 -18.3150000  -3.1840000 -17.7340000 -19.0000000
  -2.8480000 -18.5260000 -18.8470000  -7.2360000  -1.2020000 -37.4480000
  -7.0780000  -0.3630000 -37.8810000  -6.9740000  -1.0550000 -36.5390000
  -7.1820000  -1.0760000 -37.3870000 -11.0340000  -0.0570000 -28.3650000
 -11.0680000  -0.7440000 -27.7000000 -10.5580000  -0.4520000 -29.0950000
 -10.9780000  -0.1950000 -28.3730000  -9.1550000  -9.3290000 -35.6770000
  -8.4250000  -8.7090000 -35.6880000  -9.9370000  -8.7780000 -35.7080000
  -9.1620000  -9.1790000 -35.6830000  -9.5230000 -11.9480000 -26.5610000
  -9.9720000 -12.7020000 -26.1790000  -8.8010000 -12.3280000 -27.0610000
  -9.4880000 -12.0930000 -26.5760000  -7.9880000  -7.8240000 -24.8490000
  -8.2640000  -7.0000000 -24.4470000  -7.0370000  -7.8370000 -24.7400000
  -7.9010000  -7.7200000 -24.7840000 -12.5000000 -15.2110000 -32.5780000
 -12.6480000 -14.2680000 -32.6560000 -13.2920000 -15.5430000 -32.1540000
 -12.6200000 -15.1330000 -32.5340000  -8.6320000  -0.6010000 -26.6000000
  -7.8420000  -0.0630000 -26.6540000  -9.2320000  -0.2090000 -27.2340000
  -8.6080000  -0.4820000 -26.6880000 -13.2440000 -14.7220000 -35.9830000
 -14.1610000 -14.9370000 -35.8170000 -12.7690000 -15.1100000 -35.2480000
 -13.3010000 -14.7990000 -35.8680000 -16.6020000  -9.9760000 -22.7120000
 -17.2810000  -9.3370000 -22.4920000 -17.0120000 -10.8250000 -22.5490000
 -16.7420000 -10.0030000 -22.6630000  -5.6420000  -1.9710000 -31.7480000
  -6.0100000  -1.3900000 -31.0830000  -4.7510000  -1.6480000 -31.8820000
  -5.5750000  -1.8550000 -31.6800000 -18.4540000 -17.0670000 -24.1300000
 -17.5920000 -17.1060000 -23.7160000 -18.2680000 -16.9170000 -25.0570000
 -18.3200000 -17.0530000 -24.1960000  -7.5370000  -9.5340000 -26.7630000
  -7.8050000  -8.8910000 -26.1060000  -8.3360000  -9.7160000 -27.2590000
  -7.6740000  -9.4750000 -26.7430000 -18.9950000 -11.8960000 -20.1430000
 -19.5950000 -11.1630000 -20.0020000 -18.4480000 -11.9130000 -19.3570000
 -19.0020000 -11.8040000 -20.0240000 -17.6400000 -12.9950000 -32.1000000
 -17.2390000 -12.4100000 -31.4560000 -18.1030000 -12.4100000 -32.6990000
 -17.6470000 -12.8450000 -32.0940000  -7.5600000 -11.2000000 -24.2010000
  -7.7230000 -10.8910000 -25.0920000  -8.4210000 -11.4640000 -23.8780000
  -7.6910000 -11.1940000 -24.2730000  -7.3380000 -16.9790000 -20.0630000
  -7.3410000 -17.2690000 -20.9750000  -8.0100000 -16.2980000 -20.0260000
  -7.4250000 -16.9290000 -20.1750000 -15.6790000 -18.3160000 -36.0550000
 -15.6780000 -17.5740000 -35.4510000 -15.1750000 -18.0120000 -36.8090000
 -15.6140000 -18.1820000 -36.0740000 -14.7630000  -6.2800000 -35.7710000
 -14.6770000  -6.3310000 -36.7230000 -15.3160000  -5.5120000 -35.6220000
 -14.8230000  -6.1880000 -35.8740000  -3.2780000 -12.8410000 -20.4340000
  -2.5650000 -13.4730000 -20.3390000  -2.8380000 -12.0040000 -20.5800000
  -3.1310000 -12.8150000 -20.4410000 -17.2500000 -11.0590000 -26.9120000
 -18.0280000 -10.5530000 -26.6810000 -17.5120000 -11.9720000 -26.7890000
 -17.3820000 -11.1110000 -26.8670000 -14.1530000  -6.9020000 -29.8060000
 -14.2400000  -6.1220000 -29.2570000 -14.0810000  -7.6260000 -29.1830000
 -14.1550000  -6.8950000 -29.6560000 -18.5220000 -15.8180000 -34.6010000
 -18.5790000 -16.0720000 -35.5220000 -19.0700000 -15.0360000 -34.5330000
 -18.6000000 -15.7500000 -34.7100000 -14.0510000 -11.7610000 -22.6220000
 -14.1420000 -11.8810000 -23.5670000 -14.7750000 -11.1830000 -22.3840000
 -14.1550000 -11.7020000 -22.7130000 -12.9690000 -18.2450000 -31.1700000
 -13.3740000 -18.5760000 -30.3680000 -12.8620000 -19.0190000 -31.7220000
 -13.0070000 -18.3860000 -31.1380000 -12.4260000 -12.1990000 -33.2840000
 -12.0530000 -12.2640000 -34.1630000 -13.3310000 -12.4950000 -33.3850000
 -12.4940000 -12.2460000 -33.4090000 -12.7270000  -5.0420000 -34.8500000
 -13.4590000  -5.5310000 -35.2260000 -12.0670000  -5.0290000 -35.5420000
 -12.7370000  -5.1030000 -34.9860000 -10.2810000 -15.3020000 -30.8990000
 -11.1330000 -15.4400000 -31.3110000 -10.2310000 -14.3550000 -30.7630000
 -10.3830000 -15.1980000 -30.9340000 -17.7810000  -1.6970000 -24.2790000
 -18.0750000  -1.9700000 -25.1490000 -18.0900000  -0.7950000 -24.1950000
 -17.8590000  -1.6170000 -24.3800000 -15.4090000 -14.6340000 -21.7080000
 -14.6180000 -14.6010000 -22.2450000 -15.7690000 -13.7480000 -21.7560000
 -15.3540000 -14.5170000 -21.7830000  -9.2360000 -11.6310000 -37.6600000
  -9.2550000 -10.9810000 -36.9580000  -8.8810000 -12.4190000 -37.2480000
  -9.1930000 -11.6480000 -37.5180000  -4.2530000 -16.3810000 -20.2390000
  -4.1920000 -16.7280000 -21.1290000  -5.1930000 -16.3330000 -20.0650000
  -4.3660000 -16.4190000 -20.3310000 -13.8660000  -4.3330000 -24.8810000
 -14.4360000  -3.6460000 -24.5340000 -14.3180000  -5.1490000 -24.6670000
 -13.9970000  -4.3490000 -24.8090000  -7.2740000  -2.7520000 -33.7900000
  -7.9590000  -2.8240000 -33.1250000  -6.4760000  -2.5740000 -33.2930000
  -7.2600000  -2.7390000 -33.6410000  -9.5630000 -17.1280000 -32.8080000
  -9.7880000 -16.3430000 -32.3090000  -8.6640000 -16.9760000 -33.1000000
  -9.4760000 -17.0080000 -32.7810000  -4.1360000 -17.4080000 -27.9380000
  -3.2650000 -17.8010000 -27.8810000  -4.2350000 -17.1770000 -28.8610000
  -4.0370000 -17.4290000 -28.0490000  -7.2280000 -17.1410000 -22.8040000
  -7.4880000 -17.9170000 -23.3010000  -6.2720000 -17.1360000 -22.8520000
  -7.1390000 -17.2400000 -22.8740000  -4.1110000 -13.5430000 -32.6900000
  -4.3320000 -13.7930000 -31.7920000  -3.2950000 -14.0090000 -32.8730000
  -4.0350000 -13.6350000 -32.5980000  -6.2650000  -3.7800000 -37.5430000
  -6.6650000  -2.9120000 -37.4930000  -6.7410000  -4.3010000 -36.8960000
  -6.3770000  -3.7350000 -37.4540000 -10.3080000 -14.9930000 -27.5230000
 -11.1590000 -15.4240000 -27.6100000 -10.2090000 -14.8460000 -26.5820000
 -10.4050000 -15.0290000 -27.4140000 -11.6770000 -17.9720000 -20.3720000
 -12.2300000 -17.6610000 -19.6560000 -11.6160000 -17.2260000 -20.9690000
 -11.7400000 -17.8370000 -20.3570000 -12.8860000  -5.4590000 -31.6870000
 -13.5220000  -5.9140000 -31.1360000 -13.3740000  -4.7250000 -32.0600000
 -13.0290000  -5.4230000 -31.6640000  -1.4200000 -13.5190000 -34.8540000
  -2.2430000 -14.0060000 -34.9020000  -1.6720000 -12.6550000 -34.5260000
  -1.5570000 -13.4710000 -34.8180000 -10.5960000  -3.8180000 -20.7000000
 -10.9830000  -4.1830000 -21.4960000 -11.2440000  -3.1890000 -20.3850000
 -10.7290000  -3.7850000 -20.7610000 -18.2360000  -4.4640000 -23.3310000
 -18.6180000  -3.6210000 -23.0870000 -17.4120000  -4.2380000 -23.7620000
 -18.1800000  -4.3270000 -23.3550000 -16.3340000 -14.8380000 -27.9090000
 -16.4270000 -15.3050000 -28.7390000 -15.5100000 -15.1610000 -27.5440000
 -16.2400000 -14.9390000 -27.9680000  -3.2530000  -0.3870000 -32.2790000
  -3.5170000  -0.4220000 -33.1980000  -2.6310000  -1.1080000 -32.1800000
  -3.2070000  -0.4840000 -32.3840000  -6.0790000  -0.3910000 -34.7680000
  -6.5950000  -1.0760000 -34.3420000  -6.5620000   0.4160000 -34.5940000
  -6.2070000  -0.3760000 -34.6910000 -14.1700000 -15.5800000 -26.6530000
 -13.7180000 -16.1590000 -26.0390000 -13.6070000 -15.5650000 -27.4260000
 -14.0400000 -15.6520000 -26.6730000 -17.5880000 -12.4800000 -22.3840000
 -18.1550000 -12.1190000 -23.0660000 -18.0850000 -12.3640000 -21.5740000
 -17.7240000 -12.4190000 -22.3680000  -9.7720000  -2.4360000 -32.2380000
 -10.0100000  -3.2490000 -31.7940000 -10.5770000  -2.1580000 -32.6750000
  -9.9050000  -2.5040000 -32.2370000 -15.1710000  -6.7220000 -24.8090000
 -15.6320000  -6.3780000 -25.5740000 -15.0900000  -7.6600000 -24.9810000
 -15.2200000  -6.7980000 -24.9290000 -16.9750000  -9.0810000 -32.6240000
 -16.0190000  -9.0490000 -32.5970000 -17.2460000  -8.1640000 -32.5860000
 -16.8870000  -8.9600000 -32.6160000 -12.1350000 -13.6220000 -19.6810000
 -12.9000000 -14.0190000 -19.2630000 -12.3890000 -12.7110000 -19.8290000
 -12.2660000 -13.5560000 -19.6460000 -15.6160000 -15.7910000 -34.6530000
 -15.3090000 -15.7260000 -33.7490000 -16.5350000 -16.0490000 -34.5740000
 -15.6940000 -15.8160000 -34.5270000  -6.3070000 -11.5300000 -32.2690000
  -5.6870000 -11.0860000 -32.8480000  -7.1170000 -11.0260000 -32.3540000
  -6.3310000 -11.4080000 -32.3540000 -19.6870000  -5.4780000 -36.3080000
 -19.0600000  -6.0010000 -35.8090000 -19.1930000  -5.1720000 -37.0690000
 -19.5430000  -5.5060000 -36.3410000 -14.0150000  -3.3940000 -33.0370000
 -14.7150000  -2.9960000 -33.5540000 -13.5840000  -3.9970000 -33.6430000
 -14.0490000  -3.4200000 -33.1810000 -10.5960000  -9.0670000 -30.8960000
 -10.0820000  -9.6670000 -31.4360000 -10.8700000  -8.3770000 -31.5000000
 -10.5660000  -9.0560000 -31.0420000  -4.5540000 -15.8380000 -23.3370000
  -4.8410000 -15.0120000 -22.9460000  -4.7770000 -15.7540000 -24.2640000
  -4.6200000 -15.7210000 -23.4050000  -0.9010000  -1.2080000 -34.6070000
  -0.3140000  -1.3850000 -35.3420000  -1.4920000  -0.5280000 -34.9310000
  -0.9020000  -1.1440000 -34.7430000 -18.1100000  -1.7120000 -36.8500000
 -17.5520000  -2.4710000 -36.6780000 -17.5410000  -0.9580000 -36.6940000
 -17.9650000  -1.7130000 -36.8080000  -0.5390000 -14.5020000 -30.8510000
   0.0430000 -14.0170000 -31.4370000  -1.1050000 -13.8320000 -30.4680000
  -0.5370000 -14.3540000 -30.8770000 -12.8200000 -15.6830000 -28.9850000
 -12.9980000 -15.0930000 -29.7170000 -12.3350000 -16.4100000 -29.3750000
 -12.7810000 -15.7000000 -29.1280000 -19.2150000  -9.0930000 -30.4080000
 -18.6180000  -8.8370000 -31.1120000 -18.9120000  -8.5980000 -29.6460000
 -19.1000000  -8.9970000 -30.4010000 -16.5350000  -5.5860000 -26.6030000
 -16.2750000  -4.8930000 -27.2110000 -17.4060000  -5.3270000 -26.3040000
 -16.6120000  -5.4640000 -26.6430000  -9.9160000 -11.0850000 -21.7170000
 -10.6700000 -11.4150000 -22.2060000 -10.1170000 -11.2830000 -20.8030000
 -10.0380000 -11.1530000 -21.6630000  -6.3660000 -11.7620000 -19.6480000
  -7.1500000 -11.8010000 -19.1000000  -5.7290000 -12.3130000 -19.1940000
  -6.3850000 -11.8370000 -19.5200000  -0.7700000 -17.9700000 -30.1140000
  -1.3660000 -18.3200000 -29.4520000  -0.0520000 -18.6020000 -30.1490000
  -0.7540000 -18.0950000 -30.0340000  -4.7000000  -7.3250000 -34.4070000
  -4.3040000  -6.9840000 -33.6050000  -4.2090000  -6.9060000 -35.1140000
  -4.5870000  -7.2280000 -34.3950000  -4.9710000 -13.2390000 -22.4450000
  -4.2780000 -13.0450000 -21.8130000  -5.6070000 -12.5330000 -22.3270000
  -4.9640000 -13.1240000 -22.3490000 -12.3940000 -16.2980000 -42.9860000
 -12.1660000 -16.3260000 -42.0570000 -13.0230000 -17.0100000 -43.0990000
 -12.4450000 -16.3930000 -42.8810000 -14.9950000  -2.1120000 -42.7260000
 -15.9490000  -2.1800000 -42.7580000 -14.8060000  -1.8050000 -41.8400000
 -15.0930000  -2.0810000 -42.6170000 -14.4780000 -18.0120000 -43.4800000
 -15.0380000 -17.5640000 -42.8460000 -14.6240000 -18.9430000 -43.3130000
 -14.5680000 -18.0740000 -43.3780000 -10.2640000 -14.5620000 -43.6270000
 -10.8670000 -15.2030000 -43.2520000  -9.4750000 -14.6310000 -43.0890000
 -10.2400000 -14.6520000 -43.5100000  -9.7260000 -18.1250000 -37.3490000
  -8.8340000 -18.3540000 -37.6130000 -10.2480000 -18.2460000 -38.1420000
  -9.6780000 -18.1690000 -37.4840000  -7.8410000 -14.7360000 -42.3580000
  -7.6630000 -15.6180000 -42.0330000  -7.5220000 -14.1560000 -41.6670000
  -7.7770000 -14.7750000 -42.2280000  -9.9510000  -8.5010000 -41.5870000
 -10.0790000  -9.3660000 -41.1980000  -9.5080000  -8.6760000 -42.4180000
  -9.9110000  -8.6340000 -41.6440000 -18.8270000 -14.1710000 -43.0300000
 -18.5500000 -13.6020000 -42.3120000 -19.4290000 -14.7940000 -42.6230000
 -18.8680000 -14.1780000 -42.8860000 -17.9540000  -7.8340000 -40.4370000
 -18.8750000  -8.0540000 -40.5770000 -17.8750000  -7.7270000 -39.4900000
 -18.0620000  -7.8490000 -40.3340000  -6.5740000  -0.8200000 -47.9800000
  -5.9880000  -0.0830000 -48.1550000  -7.3560000  -0.6340000 -48.4990000
  -6.5990000  -0.7020000 -48.0690000 -16.1340000 -17.1690000 -41.4420000
 -15.9260000 -16.2710000 -41.1850000 -16.4890000 -17.5700000 -40.6490000
 -16.1520000 -17.1060000 -41.3080000  -7.7850000 -12.6800000 -40.4430000
  -7.1990000 -12.3670000 -39.7540000  -8.5110000 -12.0550000 -40.4430000
  -7.8030000 -12.5600000 -40.3550000 -13.0510000  -2.5140000 -46.2940000
 -13.3120000  -2.8890000 -45.4530000 -12.3200000  -3.0590000 -46.5830000
 -12.9910000  -2.6320000 -46.2240000 -14.8140000  -4.3210000 -47.5790000
 -15.5370000  -4.0180000 -48.1270000 -14.2190000  -3.5710000 -47.5310000
 -14.8290000  -4.1860000 -47.6430000 -18.2650000 -14.1670000 -37.3890000
 -18.4630000 -14.0860000 -38.3210000 -19.0580000 -13.8640000 -36.9470000
 -18.3910000 -14.1180000 -37.4520000 -12.1900000 -11.6040000 -45.9660000
 -11.3090000 -11.3120000 -45.7330000 -12.1040000 -11.9380000 -46.8580000
 -12.0660000 -11.6090000 -46.0510000 -18.2960000  -5.1410000 -38.6320000
 -19.0580000  -4.5730000 -38.7490000 -18.0910000  -5.4510000 -39.5140000
 -18.3680000  -5.1080000 -38.7600000 -16.2250000  -3.8460000 -37.2950000
 -15.7420000  -3.2850000 -37.9020000 -16.6680000  -4.4820000 -37.8560000
 -16.2200000  -3.8550000 -37.4440000 -12.5990000  -2.1100000 -38.4970000
 -12.0250000  -2.1970000 -37.7360000 -12.6410000  -1.1680000 -38.6590000
 -12.5310000  -2.0010000 -38.4210000  -7.8930000 -15.7850000 -47.7820000
  -8.8450000 -15.8480000 -47.7110000  -7.5650000 -16.5130000 -47.2540000
  -7.9730000 -15.8860000 -47.7050000  -2.7640000  -7.7770000 -45.6600000
  -2.3240000  -7.2700000 -44.9770000  -3.4360000  -8.2740000 -45.1940000
  -2.7930000  -7.7760000 -45.5130000  -1.5490000  -6.0090000 -43.4320000
  -2.2630000  -5.4040000 -43.6310000  -0.8330000  -5.4460000 -43.1350000
  -1.5480000  -5.8600000 -43.4190000 -12.2440000  -8.2560000 -38.5960000
 -12.4010000  -9.2000000 -38.6320000 -12.3340000  -7.9640000 -39.5030000
 -12.2760000  -8.3400000 -38.7170000  -2.7720000 -13.6120000 -46.5910000
  -1.8600000 -13.6010000 -46.2980000  -2.7720000 -14.1970000 -47.3490000
  -2.6550000 -13.6860000 -46.6500000  -4.9270000  -9.2750000 -44.7400000
  -5.8020000  -9.5320000 -45.0300000  -4.5750000 -10.0580000 -44.3150000
  -4.9940000  -9.4080000 -44.7230000 -15.2180000  -2.3590000 -39.5820000
 -15.4700000  -1.4550000 -39.3910000 -14.3140000  -2.4240000 -39.2790000
 -15.1340000  -2.2510000 -39.5190000 -18.0160000 -17.3700000 -46.0270000
 -17.1830000 -16.9160000 -46.1510000 -18.6040000 -16.9710000 -46.6670000
 -17.9850000 -17.2610000 -46.1240000 -16.9170000 -18.2370000 -39.0150000
 -17.7500000 -18.6640000 -38.8140000 -16.9510000 -17.4100000 -38.5350000
 -17.0280000 -18.1860000 -38.9280000 -10.5820000 -12.7750000 -48.2770000
 -10.4960000 -13.5590000 -47.7330000 -10.1420000 -12.0880000 -47.7770000
 -10.5150000 -12.7870000 -48.1440000  -1.9200000 -15.1570000 -38.9370000
  -2.8190000 -15.4850000 -38.9420000  -1.5950000 -15.3340000 -39.8190000
  -1.9940000 -15.2220000 -39.0500000  -7.4560000  -4.7510000 -39.8070000
  -6.8740000  -4.9150000 -39.0660000  -8.0490000  -4.0650000 -39.4990000
  -7.4580000  -4.6840000 -39.6730000 -11.1540000  -4.2870000 -47.0680000
 -11.6340000  -5.0950000 -46.8910000 -10.4240000  -4.3010000 -46.4490000
 -11.1220000  -4.3920000 -46.9660000   2.2580000 -11.3700000 -48.6840000
   2.2720000 -11.6830000 -47.7790000   2.2090000 -10.4170000 -48.6070000
   2.2540000 -11.2880000 -48.5580000 -11.6110000 -11.7860000 -42.6810000
 -12.4560000 -12.1060000 -42.3640000 -11.1380000 -12.5770000 -42.9400000
 -11.6590000 -11.9280000 -42.6730000 -14.6840000  -6.6000000 -38.3470000
 -13.8730000  -7.0880000 -38.4890000 -14.9530000  -6.3230000 -39.2230000
 -14.6150000  -6.6270000 -38.4780000  -1.8830000 -15.9190000 -41.5060000
  -2.7490000 -16.0830000 -41.8770000  -1.3010000 -16.5110000 -41.9830000
  -1.9190000 -16.0160000 -41.6150000 -12.4220000  -7.5600000 -41.3190000
 -11.5420000  -7.9330000 -41.3710000 -12.9600000  -8.1410000 -41.8560000
 -12.3780000  -7.6820000 -41.3940000  -3.4330000  -3.8490000 -42.9620000
  -3.7840000  -3.9520000 -42.0770000  -3.2850000  -2.9070000 -43.0520000
  -3.4590000  -3.7420000 -42.8600000  -1.2960000  -2.0820000 -41.0830000
  -1.0980000  -2.4770000 -40.2330000  -1.9670000  -1.4270000 -40.8920000
  -1.3570000  -2.0490000 -40.9500000  -5.9780000  -9.3030000 -41.6700000
  -6.5350000  -9.6970000 -42.3420000  -6.5540000  -8.6930000 -41.2100000
  -6.1230000  -9.2750000 -41.6970000  -2.0640000 -10.0420000 -38.4760000
  -2.8870000  -9.7020000 -38.8250000  -2.2080000 -10.0980000 -37.5310000
  -2.1870000 -10.0060000 -38.4000000 -15.1390000  -9.7250000 -44.0440000
 -15.5160000  -9.8520000 -43.1740000 -15.7020000 -10.2360000 -44.6260000
 -15.2590000  -9.8060000 -44.0070000  -6.1320000  -8.2150000 -48.5890000
  -5.5870000  -7.7140000 -47.9820000  -6.8260000  -7.6080000 -48.8460000
  -6.1510000  -8.0740000 -48.5440000 -18.1490000  -6.6490000 -47.7680000
 -17.7550000  -6.7190000 -48.6380000 -17.5370000  -7.1040000 -47.1900000
 -18.0200000  -6.7160000 -47.8060000 -14.9910000 -15.2520000 -37.9530000
 -15.1440000 -14.9720000 -38.8560000 -15.2280000 -14.4920000 -37.4230000
 -15.0410000 -15.1190000 -38.0010000  -7.4920000  -1.1260000 -42.7990000
  -8.0410000  -1.1950000 -43.5790000  -7.1280000  -2.0030000 -42.6830000
  -7.5150000  -1.2470000 -42.8840000 -13.0590000 -11.1310000 -38.8480000
 -13.1730000 -11.4150000 -39.7550000 -13.9490000 -11.0280000 -38.5150000
 -13.1870000 -11.1540000 -38.9220000 -14.0130000 -12.8040000 -44.0020000
 -14.6030000 -13.5430000 -44.1540000 -13.4010000 -12.8320000 -44.7370000
 -14.0100000 -12.9020000 -44.1160000 -12.6280000  -6.6120000 -45.9700000
 -12.6680000  -7.5670000 -46.0070000 -13.0840000  -6.3840000 -45.1600000
 -12.6910000  -6.7050000 -45.8710000  -4.6630000  -9.9590000 -39.2880000
  -5.3540000 -10.5990000 -39.1200000  -4.8710000  -9.6030000 -40.1510000
  -4.7780000  -9.9960000 -39.3770000  -8.7850000  -4.0010000 -45.5600000
  -8.8490000  -4.5210000 -44.7580000  -8.2400000  -3.2520000 -45.3170000
  -8.7240000  -3.9720000 -45.4260000 -16.9740000  -0.9130000 -47.7810000
 -17.5150000  -0.4900000 -47.1140000 -16.0740000  -0.7160000 -47.5190000
 -16.9280000  -0.8330000 -47.6620000 -15.4330000  -6.8480000 -40.8610000
 -15.4700000  -6.5310000 -41.7630000 -16.3040000  -7.2070000 -40.6960000
 -15.5490000  -6.8540000 -40.9550000 -11.5240000  -5.1080000 -42.2860000
 -12.3070000  -4.7020000 -42.6550000 -11.8120000  -5.9790000 -42.0130000
 -11.6610000  -5.1680000 -42.2980000 -17.7860000  -3.0960000 -45.5430000
 -17.1310000  -2.7350000 -46.1400000 -18.4650000  -3.4510000 -46.1180000
 -17.7900000  -3.0950000 -45.6930000  -2.4740000 -21.2050000 -46.2920000
  -2.3280000 -20.7990000 -45.4370000  -3.4190000 -21.1360000 -46.4310000
  -2.5760000 -21.1440000 -46.2000000 -12.4980000  -9.1510000 -43.8070000
 -12.1730000  -9.9540000 -43.4000000 -13.3670000  -9.3830000 -44.1330000
 -12.5680000  -9.2830000 -43.7970000 -16.8820000  -8.2170000 -37.8380000
 -16.0790000  -7.7070000 -37.9470000 -17.3320000  -7.7990000 -37.1040000
 -16.8380000  -8.0980000 -37.7580000  -1.6980000  -0.2970000 -46.5100000
  -1.8450000  -1.2400000 -46.4280000  -1.0440000  -0.0990000 -45.8390000
  -1.6330000  -0.3930000 -46.4140000  -0.3650000  -4.0190000 -47.7240000
  -1.2090000  -3.6060000 -47.5400000  -0.4970000  -4.9410000 -47.5060000
  -0.4900000  -4.0840000 -47.6730000 -18.4600000 -13.5300000 -45.6830000
 -17.6610000 -13.8800000 -46.0780000 -18.4790000 -13.9100000 -44.8050000
 -18.3600000 -13.6240000 -45.6210000  -9.0650000 -10.4730000 -47.9550000
  -9.4720000  -9.7130000 -48.3710000  -8.2030000 -10.5380000 -48.3650000
  -9.0070000 -10.3840000 -48.0610000 -16.3740000  -8.7430000 -46.9700000
 -15.4170000  -8.7590000 -46.9890000 -16.6190000  -9.5570000 -46.5300000
 -16.2840000  -8.8490000 -46.9160000  -6.0710000 -14.7330000 -44.4310000
  -6.5250000 -14.2910000 -45.1490000  -6.6130000 -14.5580000 -43.6620000
  -6.1980000 -14.6540000 -44.4250000  -0.9060000  -9.8050000 -45.4870000
  -1.2950000 -10.2790000 -44.7510000  -1.4410000  -9.0160000 -45.5730000
  -1.0240000  -9.7650000 -45.4040000  -7.5320000 -13.2570000 -46.6210000
  -6.9060000 -12.8070000 -47.1880000  -7.6740000 -14.1040000 -47.0450000
  -7.4700000 -13.3080000 -46.7480000  -8.9970000  -5.3800000 -43.1220000
  -8.6040000  -4.5590000 -42.8260000  -9.9100000  -5.3250000 -42.8400000
  -9.0630000  -5.2680000 -43.0480000  -3.7730000 -12.0960000 -43.9730000
  -4.0380000 -12.7480000 -43.3230000  -3.5540000 -12.6090000 -44.7510000
  -3.7790000 -12.2450000 -43.9890000 -11.3710000 -15.4430000 -40.5080000
 -10.4490000 -15.3670000 -40.2640000 -11.8230000 -14.8260000 -39.9330000
 -11.3110000 -15.3550000 -40.4040000 -14.3800000 -18.4330000 -47.5890000
 -14.2090000 -17.5120000 -47.3900000 -13.8140000 -18.9170000 -46.9880000
 -14.2860000 -18.3770000 -47.4870000 -13.5260000  -9.3060000 -47.1960000
 -13.2690000  -9.7240000 -48.0180000 -13.4420000  -9.9980000 -46.5400000
 -13.4820000  -9.4480000 -47.2170000  -6.2140000  -4.8510000 -46.7370000
  -6.1160000  -4.6040000 -47.6570000  -7.0680000  -4.5010000 -46.4850000
  -6.3110000  -4.7750000 -46.8220000  -2.7200000 -18.5670000 -37.7730000
  -3.2610000 -19.0820000 -37.1750000  -3.1840000 -17.7340000 -37.8600000
  -2.8480000 -18.5260000 -37.7070000  -5.1260000  -2.4250000 -46.1980000
  -5.6700000  -1.8250000 -46.7090000  -5.5170000  -3.2860000 -46.3440000
  -5.2450000  -2.4580000 -46.2820000  -1.3510000 -11.0160000 -42.5750000
  -2.2470000 -11.3410000 -42.6620000  -1.4510000 -10.1210000 -42.2500000
  -1.4790000 -10.9430000 -42.5440000 -11.0340000  -0.0570000 -47.2250000
 -11.0680000  -0.7440000 -46.5600000 -10.5580000  -0.4520000 -47.9550000
 -10.9780000  -0.1950000 -47.2330000  -9.5230000 -11.9480000 -45.4210000
  -9.9720000 -12.7020000 -45.0390000  -8.8010000 -12.3280000 -45.9210000
  -9.4880000 -12.0930000 -45.4360000  -7.9880000  -7.8240000 -43.7090000
  -8.2640000  -7.0000000 -43.3070000  -7.0370000  -7.8370000 -43.6000000
  -7.9010000  -7.7200000 -43.6440000  -8.6320000  -0.6010000 -45.4600000
  -7.8420000  -0.0630000 -45.5140000  -9.2320000  -0.2090000 -46.0940000
  -8.6080000  -0.4820000 -45.5480000  -8.8490000 -14.8670000 -39.0190000
  -9.3150000 -14.2690000 -38.4350000  -8.2540000 -14.3030000 -39.5140000
  -8.8330000 -14.7190000 -39.0080000 -16.6020000  -9.9760000 -41.5720000
 -17.2810000  -9.3370000 -41.3520000 -17.0120000 -10.8250000 -41.4090000
 -16.7420000 -10.0030000 -41.5230000 -18.4540000 -17.0670000 -42.9900000
 -17.5920000 -17.1060000 -42.5760000 -18.2680000 -16.9170000 -43.9170000
 -18.3200000 -17.0530000 -43.0560000  -7.5370000  -9.5340000 -45.6230000
  -7.8050000  -8.8910000 -44.9650000  -8.3360000  -9.7160000 -46.1190000
  -7.6740000  -9.4750000 -45.6030000 -18.9950000 -11.8960000 -39.0030000
 -19.5950000 -11.1630000 -38.8620000 -18.4480000 -11.9130000 -38.2170000
 -19.0020000 -11.8040000 -38.8840000  -7.5600000 -11.2000000 -43.0610000
  -7.7230000 -10.8910000 -43.9520000  -8.4210000 -11.4640000 -42.7380000
  -7.6910000 -11.1940000 -43.1330000  -7.3380000 -16.9790000 -38.9230000
  -7.3410000 -17.2690000 -39.8350000  -8.0100000 -16.2980000 -38.8860000
  -7.4250000 -16.9290000 -39.0350000  -7.6280000  -7.5370000 -40.5250000
  -8.4460000  -7.6930000 -40.9960000  -7.5800000  -6.5850000 -40.4360000
  -7.7260000  -7.4350000 -40.5740000  -3.2780000 -12.8410000 -39.2940000
  -2.5650000 -13.4730000 -39.1990000  -2.8380000 -12.0040000 -39.4400000
  -3.1310000 -12.8150000 -39.3010000 -17.2500000 -11.0590000 -45.7720000
 -18.0280000 -10.5530000 -45.5410000 -17.5120000 -11.9720000 -45.6490000
 -17.3820000 -11.1110000 -45.7270000  -1.8050000  -1.5640000 -43.7250000
  -1.5230000  -1.6600000 -42.8150000  -2.5860000  -1.0130000 -43.6760000
  -1.8690000  -1.5060000 -43.6020000 -14.1530000  -6.9020000 -48.6660000
 -14.2400000  -6.1220000 -48.1170000 -14.0810000  -7.6260000 -48.0430000
 -14.1550000  -6.8950000 -48.5160000 -14.0510000 -11.7610000 -41.4820000
 -14.1420000 -11.8810000 -42.4270000 -14.7750000 -11.1830000 -41.2440000
 -14.1550000 -11.7020000 -41.5730000 -17.7810000  -1.6970000 -43.1390000
 -18.0750000  -1.9700000 -44.0090000 -18.0900000  -0.7950000 -43.0550000
 -17.8590000  -1.6170000 -43.2400000 -15.4090000 -14.6340000 -40.5680000
 -14.6180000 -14.6010000 -41.1050000 -15.7690000 -13.7480000 -40.6160000
 -15.3540000 -14.5170000 -40.6430000  -4.2530000 -16.3810000 -39.0990000
  -4.1920000 -16.7280000 -39.9890000  -5.1930000 -16.3330000 -38.9250000
  -4.3660000 -16.4190000 -39.1910000 -13.8660000  -4.3330000 -43.7410000
 -14.4360000  -3.6460000 -43.3940000 -14.3180000  -5.1490000 -43.5270000
 -13.9970000  -4.3490000 -43.6690000  -4.1360000 -17.4080000 -46.7980000
  -3.2650000 -17.8010000 -46.7410000  -4.2350000 -17.1770000 -47.7210000
  -4.0370000 -17.4290000 -46.9090000  -7.2280000 -17.1410000 -41.6640000
  -7.4880000 -17.9170000 -42.1610000  -6.2720000 -17.1360000 -41.7120000
  -7.1390000 -17.2400000 -41.7330000 -10.3080000 -14.9930000 -46.3830000
 -11.1590000 -15.4240000 -46.4700000 -10.2090000 -14.8460000 -45.4420000
 -10.4050000 -15.0290000 -46.2740000 -11.6770000 -17.9720000 -39.2320000
 -12.2300000 -17.6610000 -38.5160000 -11.6160000 -17.2260000 -39.8290000
 -11.7400000 -17.8370000 -39.2170000  -7.0080000  -3.7880000 -42.3420000
  -7.2110000  -4.0980000 -41.4600000  -6.4940000  -4.4960000 -42.7320000
  -6.9680000  -3.9190000 -42.2790000  -4.3630000  -6.1860000 -39.6950000
  -5.0030000  -6.7190000 -39.2230000  -4.4010000  -6.5090000 -40.5960000
  -4.4500000  -6.2960000 -39.7500000 -10.5960000  -3.8180000 -39.5600000
 -10.9830000  -4.1830000 -40.3560000 -11.2440000  -3.1890000 -39.2450000
 -10.7290000  -3.7850000 -39.6210000 -18.2360000  -4.4640000 -42.1900000
 -18.6180000  -3.6210000 -41.9470000 -17.4120000  -4.2380000 -42.6220000
 -18.1800000  -4.3270000 -42.2150000 -16.3340000 -14.8380000 -46.7690000
 -16.4270000 -15.3050000 -47.5990000 -15.5100000 -15.1610000 -46.4040000
 -16.2400000 -14.9390000 -46.8280000  -1.6960000  -8.3490000 -41.8780000
  -2.5870000  -8.1330000 -41.6000000  -1.4190000  -7.5960000 -42.4000000
  -1.7750000  -8.2250000 -41.9090000 -14.1700000 -15.5800000 -45.5130000
 -13.7180000 -16.1590000 -44.8990000 -13.6070000 -15.5650000 -46.2860000
 -14.0400000 -15.6520000 -45.5330000 -17.5880000 -12.4800000 -41.2440000
 -18.1550000 -12.1190000 -41.9260000 -18.0850000 -12.3640000 -40.4340000
 -17.7240000 -12.4190000 -41.2280000  -6.3420000   1.1520000 -45.3270000
  -5.5670000   0.9960000 -45.8660000  -6.3730000   2.1030000 -45.2210000
  -6.2470000   1.2540000 -45.3820000  -4.5790000  -3.0160000 -39.7910000
  -4.3090000  -3.9200000 -39.6310000  -5.5310000  -3.0290000 -39.6900000
  -4.6660000  -3.1330000 -39.7570000  -4.2690000  -7.3100000 -42.0940000
  -4.8790000  -8.0460000 -42.0380000  -4.7010000  -6.6860000 -42.6770000
  -4.4020000  -7.3250000 -42.1610000 -15.1710000  -6.7220000 -43.6690000
 -15.6320000  -6.3780000 -44.4340000 -15.0900000  -7.6600000 -43.8400000
 -15.2200000  -6.7980000 -43.7890000 -12.1350000 -13.6220000 -38.5410000
 -12.9000000 -14.0190000 -38.1230000 -12.3890000 -12.7110000 -38.6890000
 -12.2660000 -13.5560000 -38.5060000  -5.4140000  -5.4510000 -44.0750000
  -5.5870000  -5.5280000 -45.0130000  -4.6310000  -4.9040000 -44.0200000
  -5.3360000  -5.3910000 -44.1880000  -3.5680000  -0.5000000 -40.4650000
  -3.1590000  -0.3280000 -39.6170000  -3.8370000  -1.4170000 -40.4200000
  -3.5500000  -0.5950000 -40.3510000  -4.5540000 -15.8380000 -42.1970000
  -4.8410000 -15.0120000 -41.8060000  -4.7770000 -15.7540000 -43.1240000
  -4.6200000 -15.7210000 -42.2650000  -1.0610000  -2.8530000 -38.4720000
  -1.8330000  -2.8220000 -37.9080000  -0.4440000  -2.2430000 -38.0660000
  -1.0810000  -2.7710000 -38.3470000  -6.1600000  -7.7260000 -38.4030000
  -6.9710000  -7.6880000 -38.9100000  -5.7960000  -8.5890000 -38.5980000
  -6.2170000  -7.8310000 -38.4930000 -12.8200000 -15.6830000 -47.8450000
 -12.9980000 -15.0930000 -48.5770000 -12.3350000 -16.4100000 -48.2350000
 -12.7810000 -15.7000000 -47.9880000 -16.5350000  -5.5860000 -45.4630000
 -16.2750000  -4.8930000 -46.0710000 -17.4060000  -5.3270000 -45.1640000
 -16.6120000  -5.4640000 -45.5030000  -2.8460000  -7.9960000 -48.4820000
  -1.9930000  -8.3370000 -48.7520000  -2.8240000  -8.0250000 -47.5260000
  -2.7340000  -8.0440000 -48.3950000  -9.9160000 -11.0850000 -40.5770000
 -10.6700000 -11.4150000 -41.0650000 -10.1170000 -11.2830000 -39.6630000
 -10.0380000 -11.1530000 -40.5230000  -6.3660000 -11.7620000 -38.5080000
  -7.1500000 -11.8010000 -37.9600000  -5.7290000 -12.3130000 -38.0540000
  -6.3850000 -11.8370000 -38.3800000  -0.7700000 -17.9700000 -48.9740000
  -1.3660000 -18.3200000 -48.3120000  -0.0520000 -18.6020000 -49.0090000
  -0.7540000 -18.0950000 -48.8940000  -4.9710000 -13.2390000 -41.3050000
  -4.2780000 -13.0450000 -40.6730000  -5.6070000 -12.5330000 -41.1870000
  -4.9640000 -13.1240000 -41.2090000  -4.5060000  -0.9690000 -43.8300000
  -4.9790000  -0.1360000 -43.8370000  -5.0370000  -1.5500000 -44.3740000
  -4.6350000  -0.9370000 -43.9000000 -10.2300000 -23.5350000  44.7380000
 -10.4040000 -23.3740000  45.6650000 -10.9950000 -24.0210000  44.4320000
 -10.3500000 -23.5770000  44.8180000 -13.6590000 -28.6380000  40.0680000
 -13.8140000 -28.1810000  40.8950000 -12.9470000 -29.2480000  40.2600000
 -13.5880000 -28.6580000  40.1980000  -3.4980000 -22.4800000  38.2550000
  -4.3600000 -22.1510000  37.9980000  -3.5940000 -23.4310000  38.2530000
  -3.6210000 -22.5590000  38.2220000 -16.7720000 -22.3820000  45.0320000
 -16.7350000 -21.4890000  44.6870000 -17.5710000 -22.4030000  45.5580000
 -16.8690000 -22.2700000  45.0550000 -12.0610000 -20.5920000  41.7200000
 -12.8600000 -21.1190000  41.7300000 -11.7170000 -20.6950000  40.8330000
 -12.1190000 -20.6730000  41.6080000  -8.1530000 -25.6070000  44.1870000
  -8.5790000 -26.2140000  43.5830000  -8.8160000 -24.9400000  44.3650000
  -8.2920000 -25.5990000  44.1330000  -1.2820000 -30.6840000  45.2820000
  -2.0610000 -30.5740000  45.8270000  -0.9380000 -29.7980000  45.1720000
  -1.3380000 -30.5570000  45.3370000  -7.0750000 -26.4160000  39.7320000
  -6.3050000 -26.3950000  40.2990000  -6.7560000 -26.7840000  38.9090000
  -6.9360000 -26.4600000  39.6990000  -1.3390000 -26.7800000  41.4630000
  -1.7050000 -26.1380000  42.0730000  -2.1040000 -27.2010000  41.0700000
  -1.4840000 -26.7510000  41.4900000  -3.3570000 -25.1790000  38.4800000
  -3.3150000 -25.3130000  37.5320000  -2.4710000 -24.9120000  38.7220000
  -3.2380000 -25.1620000  38.3890000  -6.3640000 -23.0120000  45.0680000
  -6.1880000 -22.1620000  44.6650000  -7.1230000 -23.3490000  44.5940000
  -6.4380000 -22.9460000  44.9570000  -6.5740000 -19.6870000  46.3200000
  -5.9880000 -18.9500000  46.1450000  -7.3560000 -19.5010000  45.8020000
  -6.5990000 -19.5690000  46.2320000 -10.1650000 -31.0460000  43.3890000
 -10.9900000 -31.0650000  42.9040000 -10.4160000 -31.2320000  44.2940000
 -10.3030000 -31.0720000  43.4430000 -13.0510000 -21.3810000  48.0070000
 -13.3120000 -21.7560000  48.8480000 -12.3200000 -21.9260000  47.7180000
 -12.9910000 -21.4990000  48.0770000 -14.8140000 -23.1880000  46.7220000
 -15.5370000 -22.8850000  46.1730000 -14.2190000 -22.4380000  46.7690000
 -14.8290000 -23.0530000  46.6570000 -15.3400000 -29.4240000  38.0590000
 -15.9430000 -28.6870000  37.9640000 -14.7110000 -29.1350000  38.7200000
 -15.3370000 -29.2930000  38.1320000 -10.9130000 -20.9620000  39.3520000
 -10.4540000 -21.7840000  39.5240000 -10.2150000 -20.3220000  39.2140000
 -10.7650000 -20.9850000  39.3570000 -12.1900000 -30.4710000  48.3340000
 -11.3090000 -30.1800000  48.5670000 -12.1040000 -30.8050000  47.4420000
 -12.0660000 -30.4760000  48.2500000  -2.7640000 -26.6440000  48.6400000
  -2.3240000 -26.1370000  49.3230000  -3.4360000 -27.1410000  49.1070000
  -2.7930000 -26.6430000  48.7870000  -8.0370000 -23.8150000  39.8070000
  -7.7330000 -24.7080000  39.9630000  -7.5100000 -23.2750000  40.3950000
  -7.9310000 -23.8600000  39.9010000  -1.9040000 -22.9030000  41.3600000
  -1.7830000 -22.0280000  40.9920000  -1.6950000 -23.4960000  40.6380000
  -1.8620000 -22.8660000  41.2190000 -17.5070000 -19.4200000  42.5430000
 -18.2890000 -19.5520000  42.0050000 -17.5370000 -18.4950000  42.7870000
 -17.6110000 -19.3180000  42.5050000 -11.1540000 -23.1550000  47.2320000
 -11.6340000 -23.9620000  47.4090000 -10.4240000 -23.1680000  47.8520000
 -11.1220000 -23.2600000  47.3340000   2.2580000 -30.2370000  45.6170000
   2.2720000 -30.5500000  46.5220000   2.2090000 -29.2840000  45.6930000
   2.2540000 -30.1550000  45.7430000 -15.7760000 -20.8950000  41.0770000
 -16.3580000 -20.3970000  41.6500000 -15.5470000 -20.2840000  40.3760000
 -15.8210000 -20.7530000  41.0600000  -2.1770000 -29.3360000  39.5000000
  -2.6340000 -29.5770000  40.3070000  -1.2510000 -29.4760000  39.6990000
  -2.1170000 -29.3850000  39.6300000  -6.1320000 -27.0820000  45.7120000
  -5.5870000 -26.5810000  46.3180000  -6.8260000 -26.4750000  45.4550000
  -6.1510000 -26.9410000  45.7570000 -18.1490000 -25.5160000  46.5320000
 -17.7550000 -25.5860000  45.6620000 -17.5370000 -25.9710000  47.1100000
 -18.0200000 -25.5830000  46.4940000  -3.4280000 -29.8360000  41.9040000
  -3.4710000 -29.2170000  42.6350000  -3.7940000 -30.6470000  42.2570000
  -3.4800000 -29.8600000  42.0430000  -8.6780000 -28.9720000  42.3830000
  -9.3500000 -29.6530000  42.4130000  -8.5990000 -28.7550000  41.4550000
  -8.7540000 -29.0310000  42.2680000 -12.6280000 -25.4800000  48.3300000
 -12.6680000 -26.4350000  48.2930000 -13.0840000 -25.2510000  49.1400000
 -12.6910000 -25.5720000  48.4300000 -19.0450000 -29.7240000  42.1500000
 -18.3800000 -29.1240000  42.4880000 -19.8770000 -29.2900000  42.3390000
 -19.0660000 -29.5920000  42.2180000 -16.7130000 -25.2800000  44.3520000
 -16.0340000 -25.5590000  44.9650000 -16.6140000 -24.3300000  44.3030000
 -16.6130000 -25.1930000  44.4250000 -11.2980000 -26.5430000  39.4390000
 -11.6810000 -26.8530000  38.6170000 -11.0590000 -25.6320000  39.2630000
 -11.3160000 -26.4660000  39.3120000  -3.2860000 -23.9720000  45.3600000
  -4.2010000 -23.9620000  45.0770000  -3.1640000 -24.8400000  45.7440000
  -3.3880000 -24.0820000  45.3730000 -13.6640000 -27.6550000  42.4430000
 -12.8410000 -27.1690000  42.4050000 -13.6130000 -28.1500000  43.2600000
 -13.5520000 -27.6560000  42.5430000 -16.9740000 -19.7800000  46.5190000
 -17.5150000 -19.3570000  47.1870000 -16.0740000 -19.5830000  46.7820000
 -16.9280000 -19.7000000  46.6380000 -11.3690000 -26.0180000  42.4450000
 -11.8920000 -25.3150000  42.8320000 -11.3570000 -25.8220000  41.5100000
 -11.4340000 -25.9030000  42.3750000  -4.3260000 -31.1510000  38.6100000
  -3.8480000 -31.5050000  37.8610000  -3.8240000 -30.3800000  38.8720000
  -4.2010000 -31.0970000  38.5470000 -17.7860000 -21.9630000  48.7570000
 -17.1310000 -21.6020000  48.1600000 -18.4650000 -22.3180000  48.1830000
 -17.7900000 -21.9620000  48.6070000  -6.3860000 -29.9360000  45.7230000
  -5.8880000 -30.1430000  44.9320000  -6.2020000 -29.0110000  45.8870000
  -6.2990000 -29.8440000  45.6420000 -17.7970000 -26.1530000  39.9210000
 -17.0300000 -26.4760000  40.3970000 -18.5400000 -26.3920000  40.4760000
 -17.7950000 -26.2250000  40.0530000  -1.6980000 -19.1650000  47.7900000
  -1.8450000 -20.1070000  47.8720000  -1.0440000 -18.9660000  48.4620000
  -1.6330000 -19.2600000  47.8870000  -0.3650000 -22.8860000  46.5770000
  -1.2090000 -22.4730000  46.7600000  -0.4970000 -23.8080000  46.7940000
  -0.4900000 -22.9510000  46.6280000  -9.0650000 -29.3400000  46.3450000
  -9.4720000 -28.5800000  45.9300000  -8.2030000 -29.4050000  45.9350000
  -9.0070000 -29.2510000  46.2390000  -4.5280000 -28.1010000  43.8270000
  -3.8540000 -27.6900000  44.3680000  -5.3380000 -27.6550000  44.0730000
  -4.5450000 -27.9910000  43.9280000 -16.3740000 -27.6100000  47.3300000
 -15.4170000 -27.6260000  47.3120000 -16.6190000 -28.4240000  47.7700000
 -16.2840000 -27.7160000  47.3850000 -13.0270000 -29.1700000  44.5530000
 -12.8390000 -29.9220000  43.9900000 -12.1710000 -28.7800000  44.7230000
 -12.8940000 -29.2160000  44.5030000 -10.5770000 -23.9630000  38.8360000
  -9.7330000 -24.0010000  39.2870000 -10.3540000 -23.7580000  37.9280000
 -10.4400000 -23.9420000  38.7780000 -13.5260000 -28.1730000  47.1050000
 -13.2690000 -28.5910000  46.2820000 -13.4420000 -28.8650000  47.7600000
 -13.4820000 -28.3150000  47.0830000  -6.2140000 -23.7180000  47.5640000
  -6.1160000 -23.4710000  46.6430000  -7.0680000 -23.3680000  47.8150000
  -6.3110000 -23.6420000  47.4780000  -8.8240000 -19.3040000  44.9030000
  -9.0090000 -20.1310000  44.4570000  -9.1360000 -18.6310000  44.2970000
  -8.8880000 -19.3240000  44.7670000  -7.2360000 -20.0690000  37.9920000
  -7.0780000 -19.2300000  37.5590000  -6.9740000 -19.9220000  38.9010000
  -7.1820000 -19.9430000  38.0530000  -5.1260000 -21.2920000  48.1020000
  -5.6700000 -20.6920000  47.5920000  -5.5170000 -22.1530000  47.9570000
  -5.2450000 -21.3250000  48.0180000 -11.0340000 -18.9240000  47.0760000
 -11.0680000 -19.6110000  47.7400000 -10.5580000 -19.3190000  46.3450000
 -10.9780000 -19.0620000  47.0680000  -9.1550000 -28.1960000  39.7630000
  -8.4250000 -27.5760000  39.7530000  -9.9370000 -27.6450000  39.7320000
  -9.1620000 -28.0460000  39.7570000  -9.5230000 -30.8150000  48.8800000
  -9.9720000 -31.5690000  49.2620000  -8.8010000 -31.1950000  48.3800000
  -9.4880000 -30.9600000  48.8640000  -8.6320000 -19.4680000  48.8400000
  -7.8420000 -18.9300000  48.7870000  -9.2320000 -19.0760000  48.2070000
  -8.6080000 -19.3490000  48.7530000  -5.6420000 -20.8380000  43.6930000
  -6.0100000 -20.2570000  44.3570000  -4.7510000 -20.5150000  43.5580000
  -5.5750000 -20.7220000  43.7600000  -7.5370000 -28.4010000  48.6780000
  -7.8050000 -27.7580000  49.3350000  -8.3360000 -28.5830000  48.1820000
  -7.6740000 -28.3420000  48.6980000 -14.7630000 -25.1470000  39.6690000
 -14.6770000 -25.1980000  38.7170000 -15.3160000 -24.3790000  39.8180000
 -14.8230000 -25.0550000  39.5670000 -17.2500000 -29.9260000  48.5280000
 -18.0280000 -29.4200000  48.7600000 -17.5120000 -30.8390000  48.6520000
 -17.3820000 -29.9780000  48.5730000 -14.1530000 -25.7690000  45.6350000
 -14.2400000 -24.9890000  46.1830000 -14.0810000 -26.4930000  46.2570000
 -14.1550000 -25.7620000  45.7840000  -1.8840000 -21.6530000  44.0100000
  -1.8140000 -22.2820000  44.7270000  -1.8180000 -22.1850000  43.2180000
  -1.8670000 -21.8010000  44.0000000 -12.4260000 -31.0660000  42.1570000
 -12.0530000 -31.1310000  41.2780000 -13.3310000 -31.3620000  42.0550000
 -12.4940000 -31.1130000  42.0320000 -12.7270000 -23.9090000  40.5910000
 -13.4590000 -24.3980000  40.2140000 -12.0670000 -23.8960000  39.8980000
 -12.7370000 -23.9700000  40.4550000  -9.2360000 -30.4980000  37.7800000
  -9.2550000 -29.8480000  38.4820000  -8.8810000 -31.2860000  38.1920000
  -9.1930000 -30.5150000  37.9220000  -7.2740000 -21.6190000  41.6500000
  -7.9590000 -21.6910000  42.3150000  -6.4760000 -21.4410000  42.1470000
  -7.2600000 -21.6060000  41.8000000  -6.2650000 -22.6470000  37.8970000
  -6.6650000 -21.7800000  37.9470000  -6.7410000 -23.1680000  38.5440000
  -6.3770000 -22.6020000  37.9860000 -12.8860000 -24.3260000  43.7530000
 -13.5220000 -24.7810000  44.3050000 -13.3740000 -23.5920000  43.3800000
 -13.0290000 -24.2900000  43.7770000  -2.6280000 -25.1940000  42.8550000
  -2.6060000 -25.0780000  43.8050000  -2.4550000 -24.3210000  42.5030000
  -2.6030000 -25.0670000  42.9320000  -3.2530000 -19.2540000  43.1620000
  -3.5170000 -19.2900000  42.2430000  -2.6310000 -19.9750000  43.2600000
  -3.2070000 -19.3510000  43.0570000  -6.0790000 -19.2580000  40.6720000
  -6.5950000 -19.9430000  41.0980000  -6.5620000 -18.4510000  40.8460000
  -6.2070000 -19.2430000  40.7500000  -6.3420000 -17.7150000  48.9730000
  -5.5670000 -17.8710000  48.4340000  -6.3730000 -16.7640000  49.0800000
  -6.2470000 -17.6130000  48.9180000  -9.7720000 -21.3030000  43.2020000
 -10.0100000 -22.1160000  43.6470000 -10.5770000 -21.0250000  42.7650000
  -9.9050000 -21.3710000  43.2030000 -16.9750000 -27.9480000  42.8170000
 -16.0190000 -27.9160000  42.8430000 -17.2460000 -27.0310000  42.8550000
 -16.8870000 -27.8270000  42.8250000  -6.3070000 -30.3970000  43.1720000
  -5.6870000 -29.9530000  42.5930000  -7.1170000 -29.8930000  43.0870000
  -6.3310000 -30.2750000  43.0870000 -19.6870000 -24.3450000  39.1320000
 -19.0600000 -24.8680000  39.6320000 -19.1930000 -24.0400000  38.3710000
 -19.5430000 -24.3730000  39.1000000 -14.0150000 -22.2610000  42.4030000
 -14.7150000 -21.8630000  41.8860000 -13.5840000 -22.8640000  41.7970000
 -14.0490000 -22.2870000  42.2600000 -10.5960000 -27.9350000  44.5440000
 -10.0820000 -28.5340000  44.0050000 -10.8700000 -27.2440000  43.9400000
 -10.5660000 -27.9230000  44.3980000  -0.9010000 -20.0750000  40.8330000
  -0.3140000 -20.2520000  40.0980000  -1.4920000 -19.3950000  40.5100000
  -0.9020000 -20.0110000  40.6970000 -18.1100000 -20.5800000  38.5910000
 -17.5520000 -21.3380000  38.7620000 -17.5410000 -19.8250000  38.7460000
 -17.9650000 -20.5800000  38.6320000 -19.2150000 -27.9600000  45.0320000
 -18.6180000 -27.7050000  44.3280000 -18.9120000 -27.4650000  45.7940000
 -19.1000000 -27.8650000  45.0400000 -16.5350000 -24.4530000  48.8370000
 -16.2750000 -23.7600000  48.2300000 -17.4060000 -24.1940000  49.1370000
 -16.6120000 -24.3310000  48.7970000  -2.8460000 -26.8630000  45.8180000
  -1.9930000 -27.2050000  45.5480000  -2.8240000 -26.8920000  46.7750000
  -2.7340000 -26.9110000  45.9050000  -4.7000000 -26.1920000  41.0330000
  -4.3040000 -25.8510000  41.8350000  -4.2090000 -25.7730000  40.3270000
  -4.5870000 -26.0950000  41.0460000 -14.9950000 -20.9800000  32.7140000
 -15.9490000 -21.0470000  32.6820000 -14.8060000 -20.6720000  33.6000000
 -15.0930000 -20.9480000  32.8230000 -10.2300000 -23.5350000  25.8770000
 -10.4040000 -23.3740000  26.8050000 -10.9950000 -24.0210000  25.5710000
 -10.3500000 -23.5770000  25.9570000 -13.6590000 -28.6380000  21.2080000
 -13.8140000 -28.1810000  22.0350000 -12.9470000 -29.2480000  21.4000000
 -13.5880000 -28.6580000  21.3380000  -3.4980000 -22.4800000  19.3940000
  -4.3600000 -22.1510000  19.1380000  -3.5940000 -23.4310000  19.3930000
  -3.6210000 -22.5590000  19.3610000 -16.7720000 -22.3820000  26.1710000
 -16.7350000 -21.4890000  25.8270000 -17.5710000 -22.4030000  26.6970000
 -16.8690000 -22.2700000  26.1940000 -12.0610000 -20.5920000  22.8600000
 -12.8600000 -21.1190000  22.8700000 -11.7170000 -20.6950000  21.9730000
 -12.1190000 -20.6730000  22.7480000  -8.1530000 -25.6070000  25.3270000
  -8.5790000 -26.2140000  24.7230000  -8.8160000 -24.9400000  25.5050000
  -8.2920000 -25.5990000  25.2730000  -1.2820000 -30.6840000  26.4210000
  -2.0610000 -30.5740000  26.9660000  -0.9380000 -29.7980000  26.3120000
  -1.3380000 -30.5570000  26.4770000  -9.9510000 -27.3680000  33.8530000
 -10.0790000 -28.2340000  34.2420000  -9.5080000 -27.5430000  33.0220000
  -9.9110000 -27.5010000  33.7960000  -7.0750000 -26.4160000  20.8720000
  -6.3050000 -26.3950000  21.4390000  -6.7560000 -26.7840000  20.0480000
  -6.9360000 -26.4600000  20.8390000  -1.3390000 -26.7800000  22.6020000
  -1.7050000 -26.1380000  23.2120000  -2.1040000 -27.2010000  22.2100000
  -1.4840000 -26.7510000  22.6300000  -3.3570000 -25.1790000  19.6190000
  -3.3150000 -25.3130000  18.6720000  -2.4710000 -24.9120000  19.8620000
  -3.2380000 -25.1620000  19.5290000 -17.9540000 -26.7010000  35.0030000
 -18.8750000 -26.9210000  34.8630000 -17.8750000 -26.5940000  35.9500000
 -18.0620000 -26.7160000  35.1060000  -6.3640000 -23.0120000  26.2080000
  -6.1880000 -22.1620000  25.8050000  -7.1230000 -23.3490000  25.7340000
  -6.4380000 -22.9460000  26.0960000  -6.5740000 -19.6870000  27.4600000
  -5.9880000 -18.9500000  27.2850000  -7.3560000 -19.5010000  26.9410000
  -6.5990000 -19.5690000  27.3710000  -7.7850000 -31.5470000  34.9970000
  -7.1990000 -31.2340000  35.6860000  -8.5110000 -30.9220000  34.9970000
  -7.8030000 -31.4280000  35.0850000 -10.1650000 -31.0460000  24.5290000
 -10.9900000 -31.0650000  24.0440000 -10.4160000 -31.2320000  25.4340000
 -10.3030000 -31.0720000  24.5830000 -13.0510000 -21.3810000  29.1460000
 -13.3120000 -21.7560000  29.9870000 -12.3200000 -21.9260000  28.8570000
 -12.9910000 -21.4990000  29.2160000 -14.8140000 -23.1880000  27.8610000
 -15.5370000 -22.8850000  27.3130000 -14.2190000 -22.4380000  27.9090000
 -14.8290000 -23.0530000  27.7970000 -15.3400000 -29.4240000  19.1990000
 -15.9430000 -28.6870000  19.1030000 -14.7110000 -29.1350000  19.8600000
 -15.3370000 -29.2930000  19.2710000 -10.9130000 -20.9620000  20.4920000
 -10.4540000 -21.7840000  20.6640000 -10.2150000 -20.3220000  20.3530000
 -10.7650000 -20.9850000  20.4960000 -12.1900000 -30.4710000  29.4740000
 -11.3090000 -30.1800000  29.7060000 -12.1040000 -30.8050000  28.5810000
 -12.0660000 -30.4760000  29.3890000 -18.2960000 -24.0080000  36.8080000
 -19.0580000 -23.4400000  36.6910000 -18.0910000 -24.3180000  35.9260000
 -18.3680000 -23.9750000  36.6800000 -16.2250000 -22.7130000  38.1450000
 -15.7420000 -22.1530000  37.5380000 -16.6680000 -23.3490000  37.5840000
 -16.2200000 -22.7220000  37.9960000 -12.5990000 -20.9770000  36.9430000
 -12.0250000 -21.0640000  37.7040000 -12.6410000 -20.0350000  36.7820000
 -12.5310000 -20.8680000  37.0190000  -2.7640000 -26.6440000  29.7800000
  -2.3240000 -26.1370000  30.4630000  -3.4360000 -27.1410000  30.2460000
  -2.7930000 -26.6430000  29.9270000  -1.5490000 -24.8760000  32.0080000
  -2.2630000 -24.2710000  31.8090000  -0.8330000 -24.3130000  32.3050000
  -1.5480000 -24.7270000  32.0210000 -12.2440000 -27.1230000  36.8440000
 -12.4010000 -28.0670000  36.8080000 -12.3340000 -26.8310000  35.9370000
 -12.2760000 -27.2070000  36.7230000  -8.0370000 -23.8150000  20.9460000
  -7.7330000 -24.7080000  21.1020000  -7.5100000 -23.2750000  21.5350000
  -7.9310000 -23.8600000  21.0410000  -4.9270000 -28.1420000  30.7000000
  -5.8020000 -28.3990000  30.4100000  -4.5750000 -28.9250000  31.1240000
  -4.9940000 -28.2750000  30.7170000 -15.2180000 -21.2260000  35.8580000
 -15.4700000 -20.3220000  36.0490000 -14.3140000 -21.2910000  36.1610000
 -15.1340000 -21.1180000  35.9210000  -1.9040000 -22.9030000  22.4990000
  -1.7830000 -22.0280000  22.1310000  -1.6950000 -23.4960000  21.7780000
  -1.8620000 -22.8660000  22.3590000 -17.5070000 -19.4200000  23.6820000
 -18.2890000 -19.5520000  23.1440000 -17.5370000 -18.4950000  23.9260000
 -17.6110000 -19.3180000  23.6440000  -7.4560000 -23.6180000  35.6330000
  -6.8740000 -23.7820000  36.3740000  -8.0490000 -22.9320000  35.9410000
  -7.4580000 -23.5510000  35.7670000 -11.1540000 -23.1550000  28.3720000
 -11.6340000 -23.9620000  28.5490000 -10.4240000 -23.1680000  28.9910000
 -11.1220000 -23.2600000  28.4740000   2.2580000 -30.2370000  26.7560000
   2.2720000 -30.5500000  27.6610000   2.2090000 -29.2840000  26.8330000
   2.2540000 -30.1550000  26.8820000 -11.6110000 -30.6530000  32.7600000
 -12.4560000 -30.9730000  33.0760000 -11.1380000 -31.4440000  32.5000000
 -11.6590000 -30.7950000  32.7670000 -14.6840000 -25.4670000  37.0930000
 -13.8730000 -25.9550000  36.9510000 -14.9530000 -25.1900000  36.2170000
 -14.6150000 -25.4940000  36.9620000 -15.7760000 -20.8950000  22.2160000
 -16.3580000 -20.3970000  22.7890000 -15.5470000 -20.2840000  21.5160000
 -15.8210000 -20.7530000  22.2000000  -2.1770000 -29.3360000  20.6400000
  -2.6340000 -29.5770000  21.4460000  -1.2510000 -29.4760000  20.8390000
  -2.1170000 -29.3850000  20.7690000 -12.4220000 -26.4280000  34.1210000
 -11.5420000 -26.8000000  34.0690000 -12.9600000 -27.0080000  33.5840000
 -12.3780000 -26.5490000  34.0460000  -3.4330000 -22.7160000  32.4780000
  -3.7840000 -22.8190000  33.3630000  -3.2850000 -21.7740000  32.3880000
  -3.4590000 -22.6090000  32.5800000  -1.2960000 -20.9490000  34.3570000
  -1.0980000 -21.3450000  35.2070000  -1.9670000 -20.2940000  34.5480000
  -1.3570000 -20.9160000  34.4900000  -5.9780000 -28.1700000  33.7700000
  -6.5350000 -28.5650000  33.0980000  -6.5540000 -27.5600000  34.2300000
  -6.1230000 -28.1420000  33.7430000  -2.0640000 -28.9090000  36.9640000
  -2.8870000 -28.5690000  36.6150000  -2.2080000 -28.9650000  37.9090000
  -2.1870000 -28.8730000  37.0410000 -15.1390000 -28.5920000  31.3960000
 -15.5160000 -28.7190000  32.2660000 -15.7020000 -29.1030000  30.8140000
 -15.2590000 -28.6730000  31.4330000  -6.1320000 -27.0820000  26.8510000
  -5.5870000 -26.5810000  27.4580000  -6.8260000 -26.4750000  26.5940000
  -6.1510000 -26.9410000  26.8960000 -18.1490000 -25.5160000  27.6720000
 -17.7550000 -25.5860000  26.8020000 -17.5370000 -25.9710000  28.2490000
 -18.0200000 -25.5830000  27.6340000  -3.4280000 -29.8360000  23.0440000
  -3.4710000 -29.2170000  23.7740000  -3.7940000 -30.6470000  23.3960000
  -3.4800000 -29.8600000  23.1830000  -8.6780000 -28.9720000  23.5230000
  -9.3500000 -29.6530000  23.5530000  -8.5990000 -28.7550000  22.5940000
  -8.7540000 -29.0310000  23.4080000  -7.4920000 -19.9930000  32.6410000
  -8.0410000 -20.0620000  31.8610000  -7.1280000 -20.8700000  32.7570000
  -7.5150000 -20.1140000  32.5560000 -13.0590000 -29.9980000  36.5920000
 -13.1730000 -30.2820000  35.6850000 -13.9490000 -29.8950000  36.9250000
 -13.1870000 -30.0210000  36.5180000 -12.6280000 -25.4800000  29.4700000
 -12.6680000 -26.4350000  29.4330000 -13.0840000 -25.2510000  30.2800000
 -12.6910000 -25.5720000  29.5690000  -4.6630000 -28.8260000  36.1520000
  -5.3540000 -29.4660000  36.3200000  -4.8710000 -28.4700000  35.2890000
  -4.7780000 -28.8630000  36.0630000 -19.0450000 -29.7240000  23.2890000
 -18.3800000 -29.1240000  23.6270000 -19.8770000 -29.2900000  23.4780000
 -19.0660000 -29.5920000  23.3570000 -16.7130000 -25.2800000  25.4910000
 -16.0340000 -25.5590000  26.1050000 -16.6140000 -24.3300000  25.4420000
 -16.6130000 -25.1930000  25.5640000 -11.2980000 -26.5430000  20.5780000
 -11.6810000 -26.8530000  19.7570000 -11.0590000 -25.6320000  20.4030000
 -11.3160000 -26.4660000  20.4510000  -8.7850000 -22.8680000  29.8800000
  -8.8490000 -23.3880000  30.6820000  -8.2400000 -22.1190000  30.1230000
  -8.7240000 -22.8390000  30.0140000  -3.2860000 -23.9720000  26.4990000
  -4.2010000 -23.9620000  26.2160000  -3.1640000 -24.8400000  26.8840000
  -3.3880000 -24.0820000  26.5120000 -13.6640000 -27.6550000  23.5830000
 -12.8410000 -27.1690000  23.5450000 -13.6130000 -28.1500000  24.4000000
 -13.5520000 -27.6560000  23.6820000 -16.9740000 -19.7800000  27.6590000
 -17.5150000 -19.3570000  28.3260000 -16.0740000 -19.5830000  27.9210000
 -16.9280000 -19.7000000  27.7780000 -11.3690000 -26.0180000  23.5850000
 -11.8920000 -25.3150000  23.9710000 -11.3570000 -25.8220000  22.6490000
 -11.4340000 -25.9030000  23.5150000  -4.3260000 -31.1510000  19.7490000
  -3.8480000 -31.5050000  19.0000000  -3.8240000 -30.3800000  20.0120000
  -4.2010000 -31.0970000  19.6870000 -15.4330000 -25.7150000  34.5790000
 -15.4700000 -25.3980000  33.6780000 -16.3040000 -26.0740000  34.7440000
 -15.5490000 -25.7210000  34.4860000 -11.5240000 -23.9750000  33.1540000
 -12.3070000 -23.5690000  32.7850000 -11.8120000 -24.8460000  33.4280000
 -11.6610000 -24.0350000  33.1420000 -17.7860000 -21.9630000  29.8970000
 -17.1310000 -21.6020000  29.3000000 -18.4650000 -22.3180000  29.3220000
 -17.7900000 -21.9620000  29.7470000 -12.4980000 -28.0180000  31.6330000
 -12.1730000 -28.8210000  32.0400000 -13.3670000 -28.2500000  31.3070000
 -12.5680000 -28.1500000  31.6430000 -16.8820000 -27.0850000  37.6020000
 -16.0790000 -26.5740000  37.4920000 -17.3320000 -26.6660000  38.3370000
 -16.8380000 -26.9650000  37.6820000  -6.3860000 -29.9360000  26.8620000
  -5.8880000 -30.1430000  26.0710000  -6.2020000 -29.0110000  27.0260000
  -6.2990000 -29.8440000  26.7820000 -17.7970000 -26.1530000  21.0610000
 -17.0300000 -26.4760000  21.5360000 -18.5400000 -26.3920000  21.6160000
 -17.7950000 -26.2250000  21.1930000  -1.6980000 -19.1650000  28.9300000
  -1.8450000 -20.1070000  29.0110000  -1.0440000 -18.9660000  29.6010000
  -1.6330000 -19.2600000  29.0260000  -0.3650000 -22.8860000  27.7160000
  -1.2090000 -22.4730000  27.9000000  -0.4970000 -23.8080000  27.9340000
  -0.4900000 -22.9510000  27.7670000  -9.0650000 -29.3400000  27.4850000
  -9.4720000 -28.5800000  27.0690000  -8.2030000 -29.4050000  27.0750000
  -9.0070000 -29.2510000  27.3800000  -4.5280000 -28.1010000  24.9670000
  -3.8540000 -27.6900000  25.5070000  -5.3380000 -27.6550000  25.2130000
  -4.5450000 -27.9910000  25.0670000 -16.3740000 -27.6100000  28.4700000
 -15.4170000 -27.6260000  28.4510000 -16.6190000 -28.4240000  28.9100000
 -16.2840000 -27.7160000  28.5240000  -0.9060000 -28.6720000  29.9530000
  -1.2950000 -29.1460000  30.6890000  -1.4410000 -27.8830000  29.8670000
  -1.0240000 -28.6320000  30.0360000  -8.9970000 -24.2470000  32.3180000
  -8.6040000 -23.4260000  32.6140000  -9.9100000 -24.1920000  32.6000000
  -9.0630000 -24.1350000  32.3920000 -13.0270000 -29.1700000  25.6920000
 -12.8390000 -29.9220000  25.1300000 -12.1710000 -28.7800000  25.8620000
 -12.8940000 -29.2160000  25.6420000 -10.5770000 -23.9630000  19.9750000
  -9.7330000 -24.0010000  20.4260000 -10.3540000 -23.7580000  19.0670000
 -10.4400000 -23.9420000  19.9170000 -13.5260000 -28.1730000  28.2440000
 -13.2690000 -28.5910000  27.4220000 -13.4420000 -28.8650000  28.9000000
 -13.4820000 -28.3150000  28.2230000  -6.2140000 -23.7180000  28.7030000
  -6.1160000 -23.4710000  27.7830000  -7.0680000 -23.3680000  28.9550000
  -6.3110000 -23.6420000  28.6180000  -8.8240000 -19.3040000  26.0420000
  -9.0090000 -20.1310000  25.5960000  -9.1360000 -18.6310000  25.4370000
  -8.8880000 -19.3240000  25.9070000  -7.2360000 -20.0690000  19.1320000
  -7.0780000 -19.2300000  18.6990000  -6.9740000 -19.9220000  20.0410000
  -7.1820000 -19.9430000  19.1930000  -5.1260000 -21.2920000  29.2420000
  -5.6700000 -20.6920000  28.7310000  -5.5170000 -22.1530000  29.0960000
  -5.2450000 -21.3250000  29.1580000  -1.3510000 -29.8830000  32.8650000
  -2.2470000 -30.2080000  32.7780000  -1.4510000 -28.9880000  33.1900000
  -1.4790000 -29.8100000  32.8960000 -11.0340000 -18.9240000  28.2150000
 -11.0680000 -19.6110000  28.8800000 -10.5580000 -19.3190000  27.4850000
 -10.9780000 -19.0620000  28.2070000  -9.1550000 -28.1960000  20.9030000
  -8.4250000 -27.5760000  20.8920000  -9.9370000 -27.6450000  20.8720000
  -9.1620000 -28.0460000  20.8970000  -9.5230000 -30.8150000  30.0190000
  -9.9720000 -31.5690000  30.4010000  -8.8010000 -31.1950000  29.5190000
  -9.4880000 -30.9600000  30.0050000  -7.9880000 -26.6910000  31.7310000
  -8.2640000 -25.8670000  32.1330000  -7.0370000 -26.7050000  31.8400000
  -7.9010000 -26.5870000  31.7960000  -8.6320000 -19.4680000  29.9800000
  -7.8420000 -18.9300000  29.9260000  -9.2320000 -19.0760000  29.3460000
  -8.6080000 -19.3490000  29.8920000 -16.6020000 -28.8430000  33.8680000
 -17.2810000 -28.2050000  34.0880000 -17.0120000 -29.6920000  34.0320000
 -16.7420000 -28.8700000  33.9170000  -5.6420000 -20.8380000  24.8320000
  -6.0100000 -20.2570000  25.4970000  -4.7510000 -20.5150000  24.6980000
  -5.5750000 -20.7220000  24.9000000  -7.5370000 -28.4010000  29.8170000
  -7.8050000 -27.7580000  30.4740000  -8.3360000 -28.5830000  29.3210000
  -7.6740000 -28.3420000  29.8370000 -18.9950000 -30.7630000  36.4370000
 -19.5950000 -30.0300000  36.5780000 -18.4480000 -30.7800000  37.2230000
 -19.0020000 -30.6710000  36.5570000  -7.5600000 -30.0670000  32.3800000
  -7.7230000 -29.7580000  31.4880000  -8.4210000 -30.3310000  32.7020000
  -7.6910000 -30.0610000  32.3070000 -14.7630000 -25.1470000  20.8090000
 -14.6770000 -25.1980000  19.8570000 -15.3160000 -24.3790000  20.9580000
 -14.8230000 -25.0550000  20.7060000  -7.6280000 -26.4050000  34.9160000
  -8.4460000 -26.5600000  34.4440000  -7.5800000 -25.4520000  35.0050000
  -7.7260000 -26.3030000  34.8670000 -17.2500000 -29.9260000  29.6680000
 -18.0280000 -29.4200000  29.8990000 -17.5120000 -30.8390000  29.7910000
 -17.3820000 -29.9780000  29.7130000 -14.1530000 -25.7690000  26.7740000
 -14.2400000 -24.9890000  27.3230000 -14.0810000 -26.4930000  27.3970000
 -14.1550000 -25.7620000  26.9240000 -14.0510000 -30.6280000  33.9580000
 -14.1420000 -30.7480000  33.0130000 -14.7750000 -30.0500000  34.1960000
 -14.1550000 -30.5690000  33.8670000  -1.8840000 -21.6530000  25.1500000
  -1.8140000 -22.2820000  25.8670000  -1.8180000 -22.1850000  24.3570000
  -1.8670000 -21.8010000  25.1400000 -12.4260000 -31.0660000  23.2960000
 -12.0530000 -31.1310000  22.4170000 -13.3310000 -31.3620000  23.1950000
 -12.4940000 -31.1130000  23.1710000 -12.7270000 -23.9090000  21.7300000
 -13.4590000 -24.3980000  21.3540000 -12.0670000 -23.8960000  21.0380000
 -12.7370000 -23.9700000  21.5940000 -17.7810000 -20.5640000  32.3010000
 -18.0750000 -20.8370000  31.4310000 -18.0900000 -19.6620000  32.3850000
 -17.8590000 -20.4840000  32.2000000  -9.2360000 -30.4980000  18.9200000
  -9.2550000 -29.8480000  19.6220000  -8.8810000 -31.2860000  19.3320000
  -9.1930000 -30.5150000  19.0620000 -13.8660000 -23.2000000  31.6990000
 -14.4360000 -22.5130000  32.0460000 -14.3180000 -24.0160000  31.9130000
 -13.9970000 -23.2160000  31.7710000  -7.2740000 -21.6190000  22.7900000
  -7.9590000 -21.6910000  23.4550000  -6.4760000 -21.4410000  23.2870000
  -7.2600000 -21.6060000  22.9390000  -6.2650000 -22.6470000  19.0370000
  -6.6650000 -21.7800000  19.0870000  -6.7410000 -23.1680000  19.6840000
  -6.3770000 -22.6020000  19.1260000 -12.8860000 -24.3260000  24.8930000
 -13.5220000 -24.7810000  25.4440000 -13.3740000 -23.5920000  24.5200000
 -13.0290000 -24.2900000  24.9160000  -7.0080000 -22.6550000  33.0980000
  -7.2110000 -22.9650000  33.9800000  -6.4940000 -23.3630000  32.7080000
  -6.9680000 -22.7860000  33.1610000  -4.3630000 -25.0530000  35.7450000
  -5.0030000 -25.5860000  36.2170000  -4.4010000 -25.3760000  34.8440000
  -4.4500000 -25.1630000  35.6900000 -10.5960000 -22.6850000  35.8800000
 -10.9830000 -23.0500000  35.0840000 -11.2440000 -22.0560000  36.1950000
 -10.7290000 -22.6530000  35.8190000 -18.2360000 -23.3310000  33.2490000
 -18.6180000 -22.4880000  33.4930000 -17.4120000 -23.1050000  32.8180000
 -18.1800000 -23.1940000  33.2250000  -1.6960000 -27.2160000  33.5620000
  -2.5870000 -27.0000000  33.8400000  -1.4190000 -26.4640000  33.0410000
  -1.7750000 -27.0920000  33.5320000  -2.6280000 -25.1940000  23.9940000
  -2.6060000 -25.0780000  24.9440000  -2.4550000 -24.3210000  23.6430000
  -2.6030000 -25.0670000  24.0710000  -3.2530000 -19.2540000  24.3010000
  -3.5170000 -19.2900000  23.3820000  -2.6310000 -19.9750000  24.4000000
  -3.2070000 -19.3510000  24.1960000  -6.0790000 -19.2580000  21.8120000
  -6.5950000 -19.9430000  22.2380000  -6.5620000 -18.4510000  21.9860000
  -6.2070000 -19.2430000  21.8890000 -17.5880000 -31.3470000  34.1960000
 -18.1550000 -30.9860000  33.5140000 -18.0850000 -31.2310000  35.0070000
 -17.7240000 -31.2860000  34.2120000  -6.3420000 -17.7150000  30.1130000
  -5.5670000 -17.8710000  29.5740000  -6.3730000 -16.7640000  30.2190000
  -6.2470000 -17.6130000  30.0580000  -9.7720000 -21.3030000  24.3420000
 -10.0100000 -22.1160000  24.7860000 -10.5770000 -21.0250000  23.9050000
  -9.9050000 -21.3710000  24.3430000  -4.5790000 -21.8830000  35.6490000
  -4.3090000 -22.7870000  35.8090000  -5.5310000 -21.8960000  35.7500000
  -4.6660000 -22.0000000  35.6830000  -4.2690000 -26.1780000  33.3460000
  -4.8790000 -26.9130000  33.4020000  -4.7010000 -25.5530000  32.7630000
  -4.4020000 -26.1920000  33.2790000 -15.1710000 -25.5890000  31.7710000
 -15.6320000 -25.2450000  31.0060000 -15.0900000 -26.5280000  31.5990000
 -15.2200000 -25.6650000  31.6510000 -16.9750000 -27.9480000  23.9560000
 -16.0190000 -27.9160000  23.9830000 -17.2460000 -27.0310000  23.9940000
 -16.8870000 -27.8270000  23.9640000  -6.3070000 -30.3970000  24.3110000
  -5.6870000 -29.9530000  23.7320000  -7.1170000 -29.8930000  24.2260000
  -6.3310000 -30.2750000  24.2260000 -19.6870000 -24.3450000  20.2720000
 -19.0600000 -24.8680000  20.7710000 -19.1930000 -24.0400000  19.5110000
 -19.5430000 -24.3730000  20.2390000 -14.0150000 -22.2610000  23.5430000
 -14.7150000 -21.8630000  23.0260000 -13.5840000 -22.8640000  22.9370000
 -14.0490000 -22.2870000  23.3990000  -5.4140000 -24.3180000  31.3650000
  -5.5870000 -24.3950000  30.4270000  -4.6310000 -23.7710000  31.4200000
  -5.3360000 -24.2580000  31.2520000 -10.5960000 -27.9350000  25.6840000
 -10.0820000 -28.5340000  25.1440000 -10.8700000 -27.2440000  25.0800000
 -10.5660000 -27.9230000  25.5380000  -3.5680000 -19.3670000  34.9750000
  -3.1590000 -19.1950000  35.8230000  -3.8370000 -20.2840000  35.0200000
  -3.5500000 -19.4620000  35.0890000  -0.9010000 -20.0750000  21.9730000
  -0.3140000 -20.2520000  21.2380000  -1.4920000 -19.3950000  21.6490000
  -0.9020000 -20.0110000  21.8370000 -18.1100000 -20.5800000  19.7300000
 -17.5520000 -21.3380000  19.9020000 -17.5410000 -19.8250000  19.8860000
 -17.9650000 -20.5800000  19.7720000  -1.0610000 -21.7200000  36.9680000
  -1.8330000 -21.6890000  37.5320000  -0.4440000 -21.1100000  37.3740000
  -1.0810000 -21.6380000  37.0930000  -6.1600000 -26.5930000  37.0370000
  -6.9710000 -26.5550000  36.5300000  -5.7960000 -27.4560000  36.8420000
  -6.2170000 -26.6980000  36.9470000 -19.2150000 -27.9600000  26.1720000
 -18.6180000 -27.7050000  25.4680000 -18.9120000 -27.4650000  26.9340000
 -19.1000000 -27.8650000  26.1790000 -16.5350000 -24.4530000  29.9770000
 -16.2750000 -23.7600000  29.3690000 -17.4060000 -24.1940000  30.2760000
 -16.6120000 -24.3310000  29.9370000  -2.8460000 -26.8630000  26.9580000
  -1.9930000 -27.2050000  26.6880000  -2.8240000 -26.8920000  27.9140000
  -2.7340000 -26.9110000  27.0450000  -9.9160000 -29.9520000  34.8630000
 -10.6700000 -30.2820000  34.3740000 -10.1170000 -30.1500000  35.7770000
 -10.0380000 -30.0200000  34.9170000  -6.3660000 -30.6300000  36.9320000
  -7.1500000 -30.6680000  37.4800000  -5.7290000 -31.1800000  37.3860000
  -6.3850000 -30.7050000  37.0600000  -4.7000000 -26.1920000  22.1730000
  -4.3040000 -25.8510000  22.9750000  -4.2090000 -25.7730000  21.4660000
  -4.5870000 -26.0950000  22.1850000  -4.5060000 -19.8360000  31.6100000
  -4.9790000 -19.0030000  31.6030000  -5.0370000 -20.4170000  31.0660000
  -4.6350000 -19.8040000  31.5400000 -14.9950000 -20.9800000  13.8540000
 -15.9490000 -21.0470000  13.8220000 -14.8060000 -20.6720000  14.7400000
 -15.0930000 -20.9480000  13.9630000 -10.2300000 -23.5350000   7.0170000
 -10.4040000 -23.3740000   7.9450000 -10.9950000 -24.0210000   6.7110000
 -10.3500000 -23.5770000   7.0970000 -13.6590000 -28.6380000   2.3480000
 -13.8140000 -28.1810000   3.1750000 -12.9470000 -29.2480000   2.5400000
 -13.5880000 -28.6580000   2.4780000  -3.4980000 -22.4800000   0.5340000
  -4.3600000 -22.1510000   0.2780000  -3.5940000 -23.4310000   0.5330000
  -3.6210000 -22.5590000   0.5010000 -16.7720000 -22.3820000   7.3110000
 -16.7350000 -21.4890000   6.9670000 -17.5710000 -22.4030000   7.8370000
 -16.8690000 -22.2700000   7.3340000 -12.0610000 -20.5920000   4.0000000
 -12.8600000 -21.1190000   4.0100000 -11.7170000 -20.6950000   3.1130000
 -12.1190000 -20.6730000   3.8880000  -8.1530000 -25.6070000   6.4670000
  -8.5790000 -26.2140000   5.8630000  -8.8160000 -24.9400000   6.6450000
  -8.2920000 -25.5990000   6.4130000  -1.2820000 -30.6840000   7.5610000
  -2.0610000 -30.5740000   8.1060000  -0.9380000 -29.7980000   7.4520000
  -1.3380000 -30.5570000   7.6170000  -9.9510000 -27.3680000  14.9930000
 -10.0790000 -28.2340000  15.3820000  -9.5080000 -27.5430000  14.1620000
  -9.9110000 -27.5010000  14.9360000  -7.0750000 -26.4160000   2.0120000
  -6.3050000 -26.3950000   2.5790000  -6.7560000 -26.7840000   1.1880000
  -6.9360000 -26.4600000   1.9790000  -1.3390000 -26.7800000   3.7420000
  -1.7050000 -26.1380000   4.3520000  -2.1040000 -27.2010000   3.3500000
  -1.4840000 -26.7510000   3.7700000  -3.3570000 -25.1790000   0.7590000
  -3.3150000 -25.3130000  -0.1880000  -2.4710000 -24.9120000   1.0020000
  -3.2380000 -25.1620000   0.6690000 -17.9540000 -26.7010000  16.1430000
 -18.8750000 -26.9210000  16.0030000 -17.8750000 -26.5940000  17.0900000
 -18.0620000 -26.7160000  16.2460000  -6.3640000 -23.0120000   7.3480000
  -6.1880000 -22.1620000   6.9450000  -7.1230000 -23.3490000   6.8740000
  -6.4380000 -22.9460000   7.2360000  -7.7850000 -31.5470000  16.1370000
  -7.1990000 -31.2340000  16.8260000  -8.5110000 -30.9220000  16.1370000
  -7.8030000 -31.4280000  16.2250000 -10.1650000 -31.0460000   5.6690000
 -10.9900000 -31.0650000   5.1840000 -10.4160000 -31.2320000   6.5740000
 -10.3030000 -31.0720000   5.7230000 -13.0510000 -21.3810000  10.2860000
 -13.3120000 -21.7560000  11.1270000 -12.3200000 -21.9260000   9.9970000
 -12.9910000 -21.4990000  10.3560000 -14.8140000 -23.1880000   9.0010000
 -15.5370000 -22.8850000   8.4530000 -14.2190000 -22.4380000   9.0490000
 -14.8290000 -23.0530000   8.9370000 -15.3400000 -29.4240000   0.3390000
 -15.9430000 -28.6870000   0.2430000 -14.7110000 -29.1350000   1.0000000
 -15.3370000 -29.2930000   0.4110000 -10.9130000 -20.9620000   1.6320000
 -10.4540000 -21.7840000   1.8040000 -10.2150000 -20.3220000   1.4930000
 -10.7650000 -20.9850000   1.6360000 -12.1900000 -30.4710000  10.6140000
 -11.3090000 -30.1800000  10.8460000 -12.1040000 -30.8050000   9.7210000
 -12.0660000 -30.4760000  10.5290000 -18.2960000 -24.0080000  17.9480000
 -19.0580000 -23.4400000  17.8310000 -18.0910000 -24.3180000  17.0660000
 -18.3680000 -23.9750000  17.8200000 -16.2250000 -22.7130000  19.2850000
 -15.7420000 -22.1530000  18.6780000 -16.6680000 -23.3490000  18.7240000
 -16.2200000 -22.7220000  19.1360000 -12.5990000 -20.9770000  18.0830000
 -12.0250000 -21.0640000  18.8440000 -12.6410000 -20.0350000  17.9210000
 -12.5310000 -20.8680000  18.1590000  -2.7640000 -26.6440000  10.9200000
  -2.3240000 -26.1370000  11.6030000  -3.4360000 -27.1410000  11.3860000
  -2.7930000 -26.6430000  11.0670000  -1.5490000 -24.8760000  13.1480000
  -2.2630000 -24.2710000  12.9490000  -0.8330000 -24.3130000  13.4450000
  -1.5480000 -24.7270000  13.1610000 -12.2440000 -27.1230000  17.9840000
 -12.4010000 -28.0670000  17.9480000 -12.3340000 -26.8310000  17.0770000
 -12.2760000 -27.2070000  17.8630000  -8.0370000 -23.8150000   2.0860000
  -7.7330000 -24.7080000   2.2420000  -7.5100000 -23.2750000   2.6750000
  -7.9310000 -23.8600000   2.1810000  -4.9270000 -28.1420000  11.8400000
  -5.8020000 -28.3990000  11.5500000  -4.5750000 -28.9250000  12.2640000
  -4.9940000 -28.2750000  11.8570000 -15.2180000 -21.2260000  16.9980000
 -15.4700000 -20.3220000  17.1890000 -14.3140000 -21.2910000  17.3010000
 -15.1340000 -21.1180000  17.0610000  -1.9040000 -22.9030000   3.6390000
  -1.7830000 -22.0280000   3.2710000  -1.6950000 -23.4960000   2.9180000
  -1.8620000 -22.8660000   3.4990000 -17.5070000 -19.4200000   4.8220000
 -18.2890000 -19.5520000   4.2840000 -17.5370000 -18.4950000   5.0660000
 -17.6110000 -19.3180000   4.7840000  -7.4560000 -23.6180000  16.7730000
  -6.8740000 -23.7820000  17.5140000  -8.0490000 -22.9320000  17.0810000
  -7.4580000 -23.5510000  16.9070000 -11.1540000 -23.1550000   9.5120000
 -11.6340000 -23.9620000   9.6890000 -10.4240000 -23.1680000  10.1310000
 -11.1220000 -23.2600000   9.6140000   2.2580000 -30.2370000   7.8960000
   2.2720000 -30.5500000   8.8010000   2.2090000 -29.2840000   7.9730000
   2.2540000 -30.1550000   8.0220000 -11.6110000 -30.6530000  13.8990000
 -12.4560000 -30.9730000  14.2160000 -11.1380000 -31.4440000  13.6400000
 -11.6590000 -30.7950000  13.9070000 -14.6840000 -25.4670000  18.2330000
 -13.8730000 -25.9550000  18.0910000 -14.9530000 -25.1900000  17.3570000
 -14.6150000 -25.4940000  18.1020000 -15.7760000 -20.8950000   3.3560000
 -16.3580000 -20.3970000   3.9290000 -15.5470000 -20.2840000   2.6560000
 -15.8210000 -20.7530000   3.3400000  -2.1770000 -29.3360000   1.7800000
  -2.6340000 -29.5770000   2.5860000  -1.2510000 -29.4760000   1.9790000
  -2.1170000 -29.3850000   1.9090000 -12.4220000 -26.4280000  15.2610000
 -11.5420000 -26.8000000  15.2090000 -12.9600000 -27.0080000  14.7240000
 -12.3780000 -26.5490000  15.1860000  -3.4330000 -22.7160000  13.6180000
  -3.7840000 -22.8190000  14.5030000  -3.2850000 -21.7740000  13.5280000
  -3.4590000 -22.6090000  13.7200000  -1.2960000 -20.9490000  15.4970000
  -1.0980000 -21.3450000  16.3470000  -1.9670000 -20.2940000  15.6880000
  -1.3570000 -20.9160000  15.6300000  -5.9780000 -28.1700000  14.9100000
  -6.5350000 -28.5650000  14.2380000  -6.5540000 -27.5600000  15.3700000
  -6.1230000 -28.1420000  14.8830000  -2.0640000 -28.9090000  18.1040000
  -2.8870000 -28.5690000  17.7550000  -2.2080000 -28.9650000  19.0490000
  -2.1870000 -28.8730000  18.1800000 -15.1390000 -28.5920000  12.5360000
 -15.5160000 -28.7190000  13.4060000 -15.7020000 -29.1030000  11.9540000
 -15.2590000 -28.6730000  12.5730000  -6.1320000 -27.0820000   7.9910000
  -5.5870000 -26.5810000   8.5980000  -6.8260000 -26.4750000   7.7340000
  -6.1510000 -26.9410000   8.0360000 -18.1490000 -25.5160000   8.8120000
 -17.7550000 -25.5860000   7.9420000 -17.5370000 -25.9710000   9.3890000
 -18.0200000 -25.5830000   8.7740000  -3.4280000 -29.8360000   4.1840000
  -3.4710000 -29.2170000   4.9140000  -3.7940000 -30.6470000   4.5360000
  -3.4800000 -29.8600000   4.3230000  -8.6780000 -28.9720000   4.6630000
  -9.3500000 -29.6530000   4.6930000  -8.5990000 -28.7550000   3.7340000
  -8.7540000 -29.0310000   4.5480000  -7.4920000 -19.9930000  13.7810000
  -8.0410000 -20.0620000  13.0010000  -7.1280000 -20.8700000  13.8970000
  -7.5150000 -20.1140000  13.6960000 -13.0590000 -29.9980000  17.7320000
 -13.1730000 -30.2820000  16.8250000 -13.9490000 -29.8950000  18.0650000
 -13.1870000 -30.0210000  17.6590000 -12.6280000 -25.4800000  10.6100000
 -12.6680000 -26.4350000  10.5730000 -13.0840000 -25.2510000  11.4200000
 -12.6910000 -25.5720000  10.7090000 -19.0450000 -29.7240000   4.4290000
 -18.3800000 -29.1240000   4.7670000 -19.8770000 -29.2900000   4.6180000
 -19.0660000 -29.5920000   4.4970000 -16.7130000 -25.2800000   6.6310000
 -16.0340000 -25.5590000   7.2450000 -16.6140000 -24.3300000   6.5820000
 -16.6130000 -25.1930000   6.7040000 -11.2980000 -26.5430000   1.7180000
 -11.6810000 -26.8530000   0.8970000 -11.0590000 -25.6320000   1.5430000
 -11.3160000 -26.4660000   1.5910000  -8.7850000 -22.8680000  11.0200000
  -8.8490000 -23.3880000  11.8220000  -8.2400000 -22.1190000  11.2630000
  -8.7240000 -22.8390000  11.1540000  -3.2860000 -23.9720000   7.6390000
  -4.2010000 -23.9620000   7.3560000  -3.1640000 -24.8400000   8.0240000
  -3.3880000 -24.0820000   7.6520000 -13.6640000 -27.6550000   4.7230000
 -12.8410000 -27.1690000   4.6850000 -13.6130000 -28.1500000   5.5400000
 -13.5520000 -27.6560000   4.8220000 -16.9740000 -19.7800000   8.7990000
 -17.5150000 -19.3570000   9.4660000 -16.0740000 -19.5830000   9.0610000
 -16.9280000 -19.7000000   8.9180000 -11.3690000 -26.0180000   4.7250000
 -11.8920000 -25.3150000   5.1110000 -11.3570000 -25.8220000   3.7890000
 -11.4340000 -25.9030000   4.6550000  -4.3260000 -31.1510000   0.8890000
  -3.8480000 -31.5050000   0.1400000  -3.8240000 -30.3800000   1.1520000
  -4.2010000 -31.0970000   0.8270000 -15.4330000 -25.7150000  15.7190000
 -15.4700000 -25.3980000  14.8170000 -16.3040000 -26.0740000  15.8840000
 -15.5490000 -25.7210000  15.6250000 -11.5240000 -23.9750000  14.2940000
 -12.3070000 -23.5690000  13.9250000 -11.8120000 -24.8460000  14.5670000
 -11.6610000 -24.0350000  14.2820000 -17.7860000 -21.9630000  11.0370000
 -17.1310000 -21.6020000  10.4400000 -18.4650000 -22.3180000  10.4620000
 -17.7900000 -21.9620000  10.8870000 -12.4980000 -28.0180000  12.7730000
 -12.1730000 -28.8210000  13.1800000 -13.3670000 -28.2500000  12.4470000
 -12.5680000 -28.1500000  12.7830000 -16.8820000 -27.0850000  18.7420000
 -16.0790000 -26.5740000  18.6320000 -17.3320000 -26.6660000  19.4760000
 -16.8380000 -26.9650000  18.8220000  -6.3860000 -29.9360000   8.0020000
  -5.8880000 -30.1430000   7.2110000  -6.2020000 -29.0110000   8.1660000
  -6.2990000 -29.8440000   7.9220000 -17.7970000 -26.1530000   2.2010000
 -17.0300000 -26.4760000   2.6760000 -18.5400000 -26.3920000   2.7560000
 -17.7950000 -26.2250000   2.3330000  -0.3650000 -22.8860000   8.8560000
  -1.2090000 -22.4730000   9.0400000  -0.4970000 -23.8080000   9.0740000
  -0.4900000 -22.9510000   8.9070000  -9.0650000 -29.3400000   8.6250000
  -9.4720000 -28.5800000   8.2090000  -8.2030000 -29.4050000   8.2150000
  -9.0070000 -29.2510000   8.5190000  -4.5280000 -28.1010000   6.1070000
  -3.8540000 -27.6900000   6.6470000  -5.3380000 -27.6550000   6.3530000
  -4.5450000 -27.9910000   6.2070000 -16.3740000 -27.6100000   9.6100000
 -15.4170000 -27.6260000   9.5910000 -16.6190000 -28.4240000  10.0500000
 -16.2840000 -27.7160000   9.6640000  -0.9060000 -28.6720000  11.0930000
  -1.2950000 -29.1460000  11.8290000  -1.4410000 -27.8830000  11.0070000
  -1.0240000 -28.6320000  11.1760000  -8.9970000 -24.2470000  13.4580000
  -8.6040000 -23.4260000  13.7540000  -9.9100000 -24.1920000  13.7400000
  -9.0630000 -24.1350000  13.5320000  -3.7730000 -30.9640000  12.6070000
  -4.0380000 -31.6150000  13.2570000  -3.5540000 -31.4760000  11.8290000
  -3.7790000 -31.1120000  12.5910000 -13.0270000 -29.1700000   6.8320000
 -12.8390000 -29.9220000   6.2700000 -12.1710000 -28.7800000   7.0020000
 -12.8940000 -29.2160000   6.7820000 -10.5770000 -23.9630000   1.1150000
  -9.7330000 -24.0010000   1.5660000 -10.3540000 -23.7580000   0.2070000
 -10.4400000 -23.9420000   1.0570000 -13.5260000 -28.1730000   9.3840000
 -13.2690000 -28.5910000   8.5620000 -13.4420000 -28.8650000  10.0400000
 -13.4820000 -28.3150000   9.3630000  -6.2140000 -23.7180000   9.8430000
  -6.1160000 -23.4710000   8.9230000  -7.0680000 -23.3680000  10.0950000
  -6.3110000 -23.6420000   9.7580000  -7.2360000 -20.0690000   0.2720000
  -7.0780000 -19.2300000  -0.1610000  -6.9740000 -19.9220000   1.1810000
  -7.1820000 -19.9430000   0.3330000  -1.3510000 -29.8830000  14.0050000
  -2.2470000 -30.2080000  13.9180000  -1.4510000 -28.9880000  14.3300000
  -1.4790000 -29.8100000  14.0360000  -9.1550000 -28.1960000   2.0430000
  -8.4250000 -27.5760000   2.0320000  -9.9370000 -27.6450000   2.0120000
  -9.1620000 -28.0460000   2.0370000  -9.5230000 -30.8150000  11.1590000
  -9.9720000 -31.5690000  11.5410000  -8.8010000 -31.1950000  10.6590000
  -9.4880000 -30.9600000  11.1440000  -7.9880000 -26.6910000  12.8710000
  -8.2640000 -25.8670000  13.2730000  -7.0370000 -26.7050000  12.9800000
  -7.9010000 -26.5870000  12.9360000 -16.6020000 -28.8430000  15.0080000
 -17.2810000 -28.2050000  15.2280000 -17.0120000 -29.6920000  15.1710000
 -16.7420000 -28.8700000  15.0570000  -5.6420000 -20.8380000   5.9720000
  -6.0100000 -20.2570000   6.6370000  -4.7510000 -20.5150000   5.8380000
  -5.5750000 -20.7220000   6.0400000  -7.5370000 -28.4010000  10.9570000
  -7.8050000 -27.7580000  11.6140000  -8.3360000 -28.5830000  10.4610000
  -7.6740000 -28.3420000  10.9770000 -18.9950000 -30.7630000  17.5770000
 -19.5950000 -30.0300000  17.7180000 -18.4480000 -30.7800000  18.3630000
 -19.0020000 -30.6710000  17.6960000  -7.5600000 -30.0670000  13.5190000
  -7.7230000 -29.7580000  12.6280000  -8.4210000 -30.3310000  13.8420000
  -7.6910000 -30.0610000  13.4470000 -14.7630000 -25.1470000   1.9490000
 -14.6770000 -25.1980000   0.9970000 -15.3160000 -24.3790000   2.0980000
 -14.8230000 -25.0550000   1.8460000  -7.6280000 -26.4050000  16.0550000
  -8.4460000 -26.5600000  15.5840000  -7.5800000 -25.4520000  16.1440000
  -7.7260000 -26.3030000  16.0060000 -17.2500000 -29.9260000  10.8080000
 -18.0280000 -29.4200000  11.0390000 -17.5120000 -30.8390000  10.9310000
 -17.3820000 -29.9780000  10.8530000  -1.8050000 -20.4310000  12.8550000
  -1.5230000 -20.5280000  13.7650000  -2.5860000 -19.8800000  12.9040000
  -1.8690000 -20.3730000  12.9780000 -14.1530000 -25.7690000   7.9140000
 -14.2400000 -24.9890000   8.4630000 -14.0810000 -26.4930000   8.5370000
 -14.1550000 -25.7620000   8.0640000 -14.0510000 -30.6280000  15.0980000
 -14.1420000 -30.7480000  14.1530000 -14.7750000 -30.0500000  15.3360000
 -14.1550000 -30.5690000  15.0070000  -1.8840000 -21.6530000   6.2900000
  -1.8140000 -22.2820000   7.0070000  -1.8180000 -22.1850000   5.4970000
  -1.8670000 -21.8010000   6.2800000 -12.4260000 -31.0660000   4.4360000
 -12.0530000 -31.1310000   3.5570000 -13.3310000 -31.3620000   4.3350000
 -12.4940000 -31.1130000   4.3110000 -12.7270000 -23.9090000   2.8700000
 -13.4590000 -24.3980000   2.4940000 -12.0670000 -23.8960000   2.1780000
 -12.7370000 -23.9700000   2.7340000 -17.7810000 -20.5640000  13.4410000
 -18.0750000 -20.8370000  12.5710000 -18.0900000 -19.6620000  13.5250000
 -17.8590000 -20.4840000  13.3400000  -9.2360000 -30.4980000   0.0600000
  -9.2550000 -29.8480000   0.7620000  -8.8810000 -31.2860000   0.4720000
  -9.1930000 -30.5150000   0.2020000 -13.8660000 -23.2000000  12.8390000
 -14.4360000 -22.5130000  13.1860000 -14.3180000 -24.0160000  13.0530000
 -13.9970000 -23.2160000  12.9110000  -7.2740000 -21.6190000   3.9300000
  -7.9590000 -21.6910000   4.5950000  -6.4760000 -21.4410000   4.4270000
  -7.2600000 -21.6060000   4.0790000  -6.2650000 -22.6470000   0.1770000
  -6.6650000 -21.7800000   0.2270000  -6.7410000 -23.1680000   0.8240000
  -6.3770000 -22.6020000   0.2660000 -12.8860000 -24.3260000   6.0330000
 -13.5220000 -24.7810000   6.5840000 -13.3740000 -23.5920000   5.6600000
 -13.0290000 -24.2900000   6.0560000  -7.0080000 -22.6550000  14.2380000
  -7.2110000 -22.9650000  15.1200000  -6.4940000 -23.3630000  13.8480000
  -6.9680000 -22.7860000  14.3010000  -4.3630000 -25.0530000  16.8850000
  -5.0030000 -25.5860000  17.3570000  -4.4010000 -25.3760000  15.9840000
  -4.4500000 -25.1630000  16.8300000 -10.5960000 -22.6850000  17.0200000
 -10.9830000 -23.0500000  16.2240000 -11.2440000 -22.0560000  17.3350000
 -10.7290000 -22.6530000  16.9590000 -18.2360000 -23.3310000  14.3890000
 -18.6180000 -22.4880000  14.6330000 -17.4120000 -23.1050000  13.9580000
 -18.1800000 -23.1940000  14.3650000  -1.6960000 -27.2160000  14.7020000
  -2.5870000 -27.0000000  14.9800000  -1.4190000 -26.4640000  14.1800000
  -1.7750000 -27.0920000  14.6710000  -2.6280000 -25.1940000   5.1340000
  -2.6060000 -25.0780000   6.0840000  -2.4550000 -24.3210000   4.7830000
  -2.6030000 -25.0670000   5.2110000  -3.2530000 -19.2540000   5.4410000
  -3.5170000 -19.2900000   4.5220000  -2.6310000 -19.9750000   5.5400000
  -3.2070000 -19.3510000   5.3360000  -6.0790000 -19.2580000   2.9520000
  -6.5950000 -19.9430000   3.3780000  -6.5620000 -18.4510000   3.1260000
  -6.2070000 -19.2430000   3.0290000 -17.5880000 -31.3470000  15.3360000
 -18.1550000 -30.9860000  14.6540000 -18.0850000 -31.2310000  16.1460000
 -17.7240000 -31.2860000  15.3520000  -9.7720000 -21.3030000   5.4820000
 -10.0100000 -22.1160000   5.9260000 -10.5770000 -21.0250000   5.0450000
  -9.9050000 -21.3710000   5.4830000  -4.5790000 -21.8830000  16.7890000
  -4.3090000 -22.7870000  16.9490000  -5.5310000 -21.8960000  16.8900000
  -4.6660000 -22.0000000  16.8230000  -4.2690000 -26.1780000  14.4860000
  -4.8790000 -26.9130000  14.5420000  -4.7010000 -25.5530000  13.9030000
  -4.4020000 -26.1920000  14.4190000 -15.1710000 -25.5890000  12.9110000
 -15.6320000 -25.2450000  12.1460000 -15.0900000 -26.5280000  12.7390000
 -15.2200000 -25.6650000  12.7910000 -16.9750000 -27.9480000   5.0960000
 -16.0190000 -27.9160000   5.1230000 -17.2460000 -27.0310000   5.1340000
 -16.8870000 -27.8270000   5.1040000  -6.3070000 -30.3970000   5.4510000
  -5.6870000 -29.9530000   4.8720000  -7.1170000 -29.8930000   5.3660000
  -6.3310000 -30.2750000   5.3660000 -19.6870000 -24.3450000   1.4120000
 -19.0600000 -24.8680000   1.9110000 -19.1930000 -24.0400000   0.6510000
 -19.5430000 -24.3730000   1.3790000 -14.0150000 -22.2610000   4.6830000
 -14.7150000 -21.8630000   4.1660000 -13.5840000 -22.8640000   4.0770000
 -14.0490000 -22.2870000   4.5390000  -5.4140000 -24.3180000  12.5050000
  -5.5870000 -24.3950000  11.5670000  -4.6310000 -23.7710000  12.5600000
  -5.3360000 -24.2580000  12.3920000 -10.5960000 -27.9350000   6.8240000
 -10.0820000 -28.5340000   6.2840000 -10.8700000 -27.2440000   6.2200000
 -10.5660000 -27.9230000   6.6780000  -3.5680000 -19.3670000  16.1150000
  -3.1590000 -19.1950000  16.9630000  -3.8370000 -20.2840000  16.1600000
  -3.5500000 -19.4620000  16.2290000  -0.9010000 -20.0750000   3.1130000
  -0.3140000 -20.2520000   2.3780000  -1.4920000 -19.3950000   2.7890000
  -0.9020000 -20.0110000   2.9770000 -18.1100000 -20.5800000   0.8700000
 -17.5520000 -21.3380000   1.0420000 -17.5410000 -19.8250000   1.0260000
 -17.9650000 -20.5800000   0.9120000  -1.0610000 -21.7200000  18.1080000
  -1.8330000 -21.6890000  18.6720000  -0.4440000 -21.1100000  18.5140000
  -1.0810000 -21.6380000  18.2330000  -6.1600000 -26.5930000  18.1770000
  -6.9710000 -26.5550000  17.6700000  -5.7960000 -27.4560000  17.9820000
  -6.2170000 -26.6980000  18.0870000 -19.2150000 -27.9600000   7.3120000
 -18.6180000 -27.7050000   6.6080000 -18.9120000 -27.4650000   8.0740000
 -19.1000000 -27.8650000   7.3190000 -16.5350000 -24.4530000  11.1170000
 -16.2750000 -23.7600000  10.5090000 -17.4060000 -24.1940000  11.4160000
 -16.6120000 -24.3310000  11.0770000  -2.8460000 -26.8630000   8.0980000
  -1.9930000 -27.2050000   7.8280000  -2.8240000 -26.8920000   9.0540000
  -2.7340000 -26.9110000   8.1850000  -9.9160000 -29.9520000  16.0030000
 -10.6700000 -30.2820000  15.5140000 -10.1170000 -30.1500000  16.9170000
 -10.0380000 -30.0200000  16.0570000  -6.3660000 -30.6300000  18.0720000
  -7.1500000 -30.6680000  18.6200000  -5.7290000 -31.1800000  18.5260000
  -6.3850000 -30.7050000  18.2000000  -4.7000000 -26.1920000   3.3130000
  -4.3040000 -25.8510000   4.1150000  -4.2090000 -25.7730000   2.6060000
  -4.5870000 -26.0950000   3.3250000 -14.9950000 -20.9800000  -5.0060000
 -15.9490000 -21.0470000  -5.0380000 -14.8060000 -20.6720000  -4.1200000
 -15.0930000 -20.9480000  -4.8970000 -10.2300000 -23.5350000 -11.8430000
 -10.4040000 -23.3740000 -10.9150000 -10.9950000 -24.0210000 -12.1490000
 -10.3500000 -23.5770000 -11.7630000 -13.6590000 -28.6380000 -16.5120000
 -13.8140000 -28.1810000 -15.6850000 -12.9470000 -29.2480000 -16.3200000
 -13.5880000 -28.6580000 -16.3820000  -3.4980000 -22.4800000 -18.3260000
  -4.3600000 -22.1510000 -18.5820000  -3.5940000 -23.4310000 -18.3270000
  -3.6210000 -22.5590000 -18.3590000 -16.7720000 -22.3820000 -11.5490000
 -16.7350000 -21.4890000 -11.8930000 -17.5710000 -22.4030000 -11.0230000
 -16.8690000 -22.2700000 -11.5260000 -12.0610000 -20.5920000 -14.8600000
 -12.8600000 -21.1190000 -14.8500000 -11.7170000 -20.6950000 -15.7470000
 -12.1190000 -20.6730000 -14.9720000  -8.1530000 -25.6070000 -12.3930000
  -8.5790000 -26.2140000 -12.9970000  -8.8160000 -24.9400000 -12.2150000
  -8.2920000 -25.5990000 -12.4470000  -1.2820000 -30.6840000 -11.2990000
  -2.0610000 -30.5740000 -10.7540000  -0.9380000 -29.7980000 -11.4080000
  -1.3380000 -30.5570000 -11.2430000  -9.9510000 -27.3680000  -3.8670000
 -10.0790000 -28.2340000  -3.4780000  -9.5080000 -27.5430000  -4.6980000
  -9.9110000 -27.5010000  -3.9240000  -7.0750000 -26.4160000 -16.8480000
  -6.3050000 -26.3950000 -16.2810000  -6.7560000 -26.7840000 -17.6720000
  -6.9360000 -26.4600000 -16.8810000  -1.3390000 -26.7800000 -15.1180000
  -1.7050000 -26.1380000 -14.5080000  -2.1040000 -27.2010000 -15.5100000
  -1.4840000 -26.7510000 -15.0900000  -3.3570000 -25.1790000 -18.1010000
  -3.3150000 -25.3130000 -19.0480000  -2.4710000 -24.9120000 -17.8580000
  -3.2380000 -25.1620000 -18.1910000 -17.9540000 -26.7010000  -2.7170000
 -18.8750000 -26.9210000  -2.8570000 -17.8750000 -26.5940000  -1.7700000
 -18.0620000 -26.7160000  -2.6140000  -6.3640000 -23.0120000 -11.5120000
  -6.1880000 -22.1620000 -11.9150000  -7.1230000 -23.3490000 -11.9860000
  -6.4380000 -22.9460000 -11.6240000  -6.5740000 -19.6870000 -10.2600000
  -5.9880000 -18.9500000 -10.4350000  -7.3560000 -19.5010000 -10.7790000
  -6.5990000 -19.5690000 -10.3490000  -7.7850000 -31.5470000  -2.7230000
  -7.1990000 -31.2340000  -2.0340000  -8.5110000 -30.9220000  -2.7230000
  -7.8030000 -31.4280000  -2.6350000 -10.1650000 -31.0460000 -13.1910000
 -10.9900000 -31.0650000 -13.6760000 -10.4160000 -31.2320000 -12.2860000
 -10.3030000 -31.0720000 -13.1370000 -13.0510000 -21.3810000  -8.5740000
 -13.3120000 -21.7560000  -7.7330000 -12.3200000 -21.9260000  -8.8630000
 -12.9910000 -21.4990000  -8.5040000 -14.8140000 -23.1880000  -9.8590000
 -15.5370000 -22.8850000 -10.4070000 -14.2190000 -22.4380000  -9.8110000
 -14.8290000 -23.0530000  -9.9230000 -15.3400000 -29.4240000 -18.5210000
 -15.9430000 -28.6870000 -18.6170000 -14.7110000 -29.1350000 -17.8600000
 -15.3370000 -29.2930000 -18.4490000 -10.9130000 -20.9620000 -17.2280000
 -10.4540000 -21.7840000 -17.0560000 -10.2150000 -20.3220000 -17.3670000
 -10.7650000 -20.9850000 -17.2240000 -12.1900000 -30.4710000  -8.2460000
 -11.3090000 -30.1800000  -8.0140000 -12.1040000 -30.8050000  -9.1390000
 -12.0660000 -30.4760000  -8.3310000 -18.2960000 -24.0080000  -0.9120000
 -19.0580000 -23.4400000  -1.0290000 -18.0910000 -24.3180000  -1.7940000
 -18.3680000 -23.9750000  -1.0400000 -16.2250000 -22.7130000   0.4250000
 -15.7420000 -22.1530000  -0.1820000 -16.6680000 -23.3490000  -0.1360000
 -16.2200000 -22.7220000   0.2760000 -12.5990000 -20.9770000  -0.7770000
 -12.0250000 -21.0640000  -0.0160000 -12.6410000 -20.0350000  -0.9390000
 -12.5310000 -20.8680000  -0.7010000  -2.7640000 -26.6440000  -7.9400000
  -2.3240000 -26.1370000  -7.2570000  -3.4360000 -27.1410000  -7.4740000
  -2.7930000 -26.6430000  -7.7930000  -1.5490000 -24.8760000  -5.7120000
  -2.2630000 -24.2710000  -5.9110000  -0.8330000 -24.3130000  -5.4150000
  -1.5480000 -24.7270000  -5.6990000 -12.2440000 -27.1230000  -0.8760000
 -12.4010000 -28.0670000  -0.9120000 -12.3340000 -26.8310000  -1.7830000
 -12.2760000 -27.2070000  -0.9970000  -8.0370000 -23.8150000 -16.7740000
  -7.7330000 -24.7080000 -16.6180000  -7.5100000 -23.2750000 -16.1850000
  -7.9310000 -23.8600000 -16.6790000  -4.9270000 -28.1420000  -7.0200000
  -5.8020000 -28.3990000  -7.3100000  -4.5750000 -28.9250000  -6.5960000
  -4.9940000 -28.2750000  -7.0030000 -15.2180000 -21.2260000  -1.8620000
 -15.4700000 -20.3220000  -1.6710000 -14.3140000 -21.2910000  -1.5590000
 -15.1340000 -21.1180000  -1.7990000  -1.9040000 -22.9030000 -15.2210000
  -1.7830000 -22.0280000 -15.5890000  -1.6950000 -23.4960000 -15.9420000
  -1.8620000 -22.8660000 -15.3610000 -17.5070000 -19.4200000 -14.0380000
 -18.2890000 -19.5520000 -14.5760000 -17.5370000 -18.4950000 -13.7940000
 -17.6110000 -19.3180000 -14.0760000  -7.4560000 -23.6180000  -2.0870000
  -6.8740000 -23.7820000  -1.3460000  -8.0490000 -22.9320000  -1.7790000
  -7.4580000 -23.5510000  -1.9530000 -11.1540000 -23.1550000  -9.3480000
 -11.6340000 -23.9620000  -9.1710000 -10.4240000 -23.1680000  -8.7290000
 -11.1220000 -23.2600000  -9.2460000   2.2580000 -30.2370000 -10.9640000
   2.2720000 -30.5500000 -10.0590000   2.2090000 -29.2840000 -10.8870000
   2.2540000 -30.1550000 -10.8380000 -11.6110000 -30.6530000  -4.9610000
 -12.4560000 -30.9730000  -4.6440000 -11.1380000 -31.4440000  -5.2200000
 -11.6590000 -30.7950000  -4.9530000 -14.6840000 -25.4670000  -0.6270000
 -13.8730000 -25.9550000  -0.7690000 -14.9530000 -25.1900000  -1.5030000
 -14.6150000 -25.4940000  -0.7580000 -15.7760000 -20.8950000 -15.5040000
 -16.3580000 -20.3970000 -14.9310000 -15.5470000 -20.2840000 -16.2040000
 -15.8210000 -20.7530000 -15.5200000  -2.1770000 -29.3360000 -17.0800000
  -2.6340000 -29.5770000 -16.2740000  -1.2510000 -29.4760000 -16.8810000
  -2.1170000 -29.3850000 -16.9510000 -12.4220000 -26.4280000  -3.5990000
 -11.5420000 -26.8000000  -3.6510000 -12.9600000 -27.0080000  -4.1360000
 -12.3780000 -26.5490000  -3.6740000  -3.4330000 -22.7160000  -5.2420000
  -3.7840000 -22.8190000  -4.3570000  -3.2850000 -21.7740000  -5.3320000
  -3.4590000 -22.6090000  -5.1400000  -1.2960000 -20.9490000  -3.3630000
  -1.0980000 -21.3450000  -2.5130000  -1.9670000 -20.2940000  -3.1720000
  -1.3570000 -20.9160000  -3.2300000  -5.9780000 -28.1700000  -3.9500000
  -6.5350000 -28.5650000  -4.6220000  -6.5540000 -27.5600000  -3.4900000
  -6.1230000 -28.1420000  -3.9770000  -2.0640000 -28.9090000  -0.7560000
  -2.8870000 -28.5690000  -1.1050000  -2.2080000 -28.9650000   0.1890000
  -2.1870000 -28.8730000  -0.6800000 -15.1390000 -28.5920000  -6.3240000
 -15.5160000 -28.7190000  -5.4540000 -15.7020000 -29.1030000  -6.9060000
 -15.2590000 -28.6730000  -6.2870000  -6.1320000 -27.0820000 -10.8690000
  -5.5870000 -26.5810000 -10.2620000  -6.8260000 -26.4750000 -11.1260000
  -6.1510000 -26.9410000 -10.8240000 -18.1490000 -25.5160000 -10.0480000
 -17.7550000 -25.5860000 -10.9180000 -17.5370000 -25.9710000  -9.4710000
 -18.0200000 -25.5830000 -10.0860000  -3.4280000 -29.8360000 -14.6760000
  -3.4710000 -29.2170000 -13.9460000  -3.7940000 -30.6470000 -14.3240000
  -3.4800000 -29.8600000 -14.5370000  -8.6780000 -28.9720000 -14.1970000
  -9.3500000 -29.6530000 -14.1670000  -8.5990000 -28.7550000 -15.1260000
  -8.7540000 -29.0310000 -14.3120000  -7.4920000 -19.9930000  -5.0790000
  -8.0410000 -20.0620000  -5.8590000  -7.1280000 -20.8700000  -4.9630000
  -7.5150000 -20.1140000  -5.1640000 -13.0590000 -29.9980000  -1.1280000
 -13.1730000 -30.2820000  -2.0350000 -13.9490000 -29.8950000  -0.7950000
 -13.1870000 -30.0210000  -1.2020000 -12.6280000 -25.4800000  -8.2500000
 -12.6680000 -26.4350000  -8.2870000 -13.0840000 -25.2510000  -7.4400000
 -12.6910000 -25.5720000  -8.1510000  -4.6630000 -28.8260000  -1.5680000
  -5.3540000 -29.4660000  -1.4000000  -4.8710000 -28.4700000  -2.4310000
  -4.7780000 -28.8630000  -1.6570000 -19.0450000 -29.7240000 -14.4310000
 -18.3800000 -29.1240000 -14.0930000 -19.8770000 -29.2900000 -14.2420000
 -19.0660000 -29.5920000 -14.3630000 -16.7130000 -25.2800000 -12.2290000
 -16.0340000 -25.5590000 -11.6150000 -16.6140000 -24.3300000 -12.2780000
 -16.6130000 -25.1930000 -12.1560000 -11.2980000 -26.5430000 -17.1420000
 -11.6810000 -26.8530000 -17.9630000 -11.0590000 -25.6320000 -17.3170000
 -11.3160000 -26.4660000 -17.2690000  -8.7850000 -22.8680000  -7.8400000
  -8.8490000 -23.3880000  -7.0380000  -8.2400000 -22.1190000  -7.5970000
  -8.7240000 -22.8390000  -7.7060000  -3.2860000 -23.9720000 -11.2210000
  -4.2010000 -23.9620000 -11.5040000  -3.1640000 -24.8400000 -10.8360000
  -3.3880000 -24.0820000 -11.2080000 -13.6640000 -27.6550000 -14.1370000
 -12.8410000 -27.1690000 -14.1750000 -13.6130000 -28.1500000 -13.3200000
 -13.5520000 -27.6560000 -14.0380000 -16.9740000 -19.7800000 -10.0610000
 -17.5150000 -19.3570000  -9.3940000 -16.0740000 -19.5830000  -9.7990000
 -16.9280000 -19.7000000  -9.9420000 -11.3690000 -26.0180000 -14.1350000
 -11.8920000 -25.3150000 -13.7490000 -11.3570000 -25.8220000 -15.0710000
 -11.4340000 -25.9030000 -14.2050000  -4.3260000 -31.1510000 -17.9710000
  -3.8480000 -31.5050000 -18.7200000  -3.8240000 -30.3800000 -17.7080000
  -4.2010000 -31.0970000 -18.0330000 -15.4330000 -25.7150000  -3.1410000
 -15.4700000 -25.3980000  -4.0430000 -16.3040000 -26.0740000  -2.9760000
 -15.5490000 -25.7210000  -3.2350000 -11.5240000 -23.9750000  -4.5660000
 -12.3070000 -23.5690000  -4.9350000 -11.8120000 -24.8460000  -4.2930000
 -11.6610000 -24.0350000  -4.5780000 -17.7860000 -21.9630000  -7.8230000
 -17.1310000 -21.6020000  -8.4200000 -18.4650000 -22.3180000  -8.3980000
 -17.7900000 -21.9620000  -7.9730000 -12.4980000 -28.0180000  -6.0870000
 -12.1730000 -28.8210000  -5.6800000 -13.3670000 -28.2500000  -6.4130000
 -12.5680000 -28.1500000  -6.0770000 -16.8820000 -27.0850000  -0.1180000
 -16.0790000 -26.5740000  -0.2280000 -17.3320000 -26.6660000   0.6160000
 -16.8380000 -26.9650000  -0.0380000  -6.3860000 -29.9360000 -10.8580000
  -5.8880000 -30.1430000 -11.6490000  -6.2020000 -29.0110000 -10.6940000
  -6.2990000 -29.8440000 -10.9380000 -17.7970000 -26.1530000 -16.6590000
 -17.0300000 -26.4760000 -16.1840000 -18.5400000 -26.3920000 -16.1040000
 -17.7950000 -26.2250000 -16.5270000  -1.6980000 -19.1650000  -8.7900000
  -1.8450000 -20.1070000  -8.7090000  -1.0440000 -18.9660000  -8.1190000
  -1.6330000 -19.2600000  -8.6940000  -0.3650000 -22.8860000 -10.0040000
  -1.2090000 -22.4730000  -9.8200000  -0.4970000 -23.8080000  -9.7860000
  -0.4900000 -22.9510000  -9.9530000  -9.0650000 -29.3400000 -10.2350000
  -9.4720000 -28.5800000 -10.6510000  -8.2030000 -29.4050000 -10.6450000
  -9.0070000 -29.2510000 -10.3410000  -4.5280000 -28.1010000 -12.7530000
  -3.8540000 -27.6900000 -12.2130000  -5.3380000 -27.6550000 -12.5070000
  -4.5450000 -27.9910000 -12.6530000 -16.3740000 -27.6100000  -9.2500000
 -15.4170000 -27.6260000  -9.2690000 -16.6190000 -28.4240000  -8.8100000
 -16.2840000 -27.7160000  -9.1960000  -0.9060000 -28.6720000  -7.7670000
  -1.2950000 -29.1460000  -7.0310000  -1.4410000 -27.8830000  -7.8530000
  -1.0240000 -28.6320000  -7.6840000  -8.9970000 -24.2470000  -5.4020000
  -8.6040000 -23.4260000  -5.1060000  -9.9100000 -24.1920000  -5.1200000
  -9.0630000 -24.1350000  -5.3280000  -3.7730000 -30.9640000  -6.2530000
  -4.0380000 -31.6150000  -5.6030000  -3.5540000 -31.4760000  -7.0310000
  -3.7790000 -31.1120000  -6.2690000 -13.0270000 -29.1700000 -12.0280000
 -12.8390000 -29.9220000 -12.5900000 -12.1710000 -28.7800000 -11.8580000
 -12.8940000 -29.2160000 -12.0780000 -10.5770000 -23.9630000 -17.7450000
  -9.7330000 -24.0010000 -17.2940000 -10.3540000 -23.7580000 -18.6530000
 -10.4400000 -23.9420000 -17.8030000 -13.5260000 -28.1730000  -9.4760000
 -13.2690000 -28.5910000 -10.2980000 -13.4420000 -28.8650000  -8.8200000
 -13.4820000 -28.3150000  -9.4970000  -6.2140000 -23.7180000  -9.0170000
  -6.1160000 -23.4710000  -9.9370000  -7.0680000 -23.3680000  -8.7650000
  -6.3110000 -23.6420000  -9.1020000  -8.8240000 -19.3040000 -11.6780000
  -9.0090000 -20.1310000 -12.1240000  -9.1360000 -18.6310000 -12.2830000
  -8.8880000 -19.3240000 -11.8130000  -7.2360000 -20.0690000 -18.5880000
  -7.0780000 -19.2300000 -19.0210000  -6.9740000 -19.9220000 -17.6790000
  -7.1820000 -19.9430000 -18.5270000  -5.1260000 -21.2920000  -8.4780000
  -5.6700000 -20.6920000  -8.9890000  -5.5170000 -22.1530000  -8.6240000
  -5.2450000 -21.3250000  -8.5620000  -1.3510000 -29.8830000  -4.8550000
  -2.2470000 -30.2080000  -4.9420000  -1.4510000 -28.9880000  -4.5300000
  -1.4790000 -29.8100000  -4.8240000 -11.0340000 -18.9240000  -9.5050000
 -11.0680000 -19.6110000  -8.8400000 -10.5580000 -19.3190000 -10.2350000
 -10.9780000 -19.0620000  -9.5130000  -9.1550000 -28.1960000 -16.8170000
  -8.4250000 -27.5760000 -16.8280000  -9.9370000 -27.6450000 -16.8480000
  -9.1620000 -28.0460000 -16.8230000  -9.5230000 -30.8150000  -7.7010000
  -9.9720000 -31.5690000  -7.3190000  -8.8010000 -31.1950000  -8.2010000
  -9.4880000 -30.9600000  -7.7160000  -7.9880000 -26.6910000  -5.9890000
  -8.2640000 -25.8670000  -5.5870000  -7.0370000 -26.7050000  -5.8800000
  -7.9010000 -26.5870000  -5.9240000  -8.6320000 -19.4680000  -7.7400000
  -7.8420000 -18.9300000  -7.7940000  -9.2320000 -19.0760000  -8.3740000
  -8.6080000 -19.3490000  -7.8280000 -16.6020000 -28.8430000  -3.8520000
 -17.2810000 -28.2050000  -3.6320000 -17.0120000 -29.6920000  -3.6890000
 -16.7420000 -28.8700000  -3.8030000  -5.6420000 -20.8380000 -12.8880000
  -6.0100000 -20.2570000 -12.2230000  -4.7510000 -20.5150000 -13.0220000
  -5.5750000 -20.7220000 -12.8200000  -7.5370000 -28.4010000  -7.9030000
  -7.8050000 -27.7580000  -7.2460000  -8.3360000 -28.5830000  -8.3990000
  -7.6740000 -28.3420000  -7.8830000 -18.9950000 -30.7630000  -1.2830000
 -19.5950000 -30.0300000  -1.1420000 -18.4480000 -30.7800000  -0.4970000
 -19.0020000 -30.6710000  -1.1640000  -7.5600000 -30.0670000  -5.3410000
  -7.7230000 -29.7580000  -6.2320000  -8.4210000 -30.3310000  -5.0180000
  -7.6910000 -30.0610000  -5.4130000 -14.7630000 -25.1470000 -16.9110000
 -14.6770000 -25.1980000 -17.8630000 -15.3160000 -24.3790000 -16.7620000
 -14.8230000 -25.0550000 -17.0140000  -7.6280000 -26.4050000  -2.8050000
  -8.4460000 -26.5600000  -3.2760000  -7.5800000 -25.4520000  -2.7160000
  -7.7260000 -26.3030000  -2.8540000 -17.2500000 -29.9260000  -8.0520000
 -18.0280000 -29.4200000  -7.8210000 -17.5120000 -30.8390000  -7.9290000
 -17.3820000 -29.9780000  -8.0070000  -1.8050000 -20.4310000  -6.0050000
  -1.5230000 -20.5280000  -5.0950000  -2.5860000 -19.8800000  -5.9560000
  -1.8690000 -20.3730000  -5.8820000 -14.1530000 -25.7690000 -10.9460000
 -14.2400000 -24.9890000 -10.3970000 -14.0810000 -26.4930000 -10.3230000
 -14.1550000 -25.7620000 -10.7960000 -14.0510000 -30.6280000  -3.7620000
 -14.1420000 -30.7480000  -4.7070000 -14.7750000 -30.0500000  -3.5240000
 -14.1550000 -30.5690000  -3.8530000  -1.8840000 -21.6530000 -12.5700000
  -1.8140000 -22.2820000 -11.8530000  -1.8180000 -22.1850000 -13.3630000
  -1.8670000 -21.8010000 -12.5800000 -12.4260000 -31.0660000 -14.4240000
 -12.0530000 -31.1310000 -15.3030000 -13.3310000 -31.3620000 -14.5250000
 -12.4940000 -31.1130000 -14.5490000 -12.7270000 -23.9090000 -15.9900000
 -13.4590000 -24.3980000 -16.3660000 -12.0670000 -23.8960000 -16.6820000
 -12.7370000 -23.9700000 -16.1260000 -17.7810000 -20.5640000  -5.4190000
 -18.0750000 -20.8370000  -6.2890000 -18.0900000 -19.6620000  -5.3350000
 -17.8590000 -20.4840000  -5.5200000  -9.2360000 -30.4980000 -18.8000000
  -9.2550000 -29.8480000 -18.0980000  -8.8810000 -31.2860000 -18.3880000
  -9.1930000 -30.5150000 -18.6580000 -13.8660000 -23.2000000  -6.0210000
 -14.4360000 -22.5130000  -5.6740000 -14.3180000 -24.0160000  -5.8070000
 -13.9970000 -23.2160000  -5.9490000  -7.2740000 -21.6190000 -14.9300000
  -7.9590000 -21.6910000 -14.2650000  -6.4760000 -21.4410000 -14.4330000
  -7.2600000 -21.6060000 -14.7810000  -6.2650000 -22.6470000 -18.6830000
  -6.6650000 -21.7800000 -18.6330000  -6.7410000 -23.1680000 -18.0360000
  -6.3770000 -22.6020000 -18.5940000 -12.8860000 -24.3260000 -12.8270000
 -13.5220000 -24.7810000 -12.2760000 -13.3740000 -23.5920000 -13.2000000
 -13.0290000 -24.2900000 -12.8040000  -7.0080000 -22.6550000  -4.6220000
  -7.2110000 -22.9650000  -3.7400000  -6.4940000 -23.3630000  -5.0120000
  -6.9680000 -22.7860000  -4.5590000  -4.3630000 -25.0530000  -1.9750000
  -5.0030000 -25.5860000  -1.5030000  -4.4010000 -25.3760000  -2.8760000
  -4.4500000 -25.1630000  -2.0300000 -10.5960000 -22.6850000  -1.8400000
 -10.9830000 -23.0500000  -2.6360000 -11.2440000 -22.0560000  -1.5250000
 -10.7290000 -22.6530000  -1.9010000 -18.2360000 -23.3310000  -4.4710000
 -18.6180000 -22.4880000  -4.2270000 -17.4120000 -23.1050000  -4.9020000
 -18.1800000 -23.1940000  -4.4950000  -1.6960000 -27.2160000  -4.1580000
  -2.5870000 -27.0000000  -3.8800000  -1.4190000 -26.4640000  -4.6800000
  -1.7750000 -27.0920000  -4.1890000  -2.6280000 -25.1940000 -13.7260000
  -2.6060000 -25.0780000 -12.7760000  -2.4550000 -24.3210000 -14.0770000
  -2.6030000 -25.0670000 -13.6490000  -3.2530000 -19.2540000 -13.4190000
  -3.5170000 -19.2900000 -14.3380000  -2.6310000 -19.9750000 -13.3200000
  -3.2070000 -19.3510000 -13.5240000  -6.0790000 -19.2580000 -15.9080000
  -6.5950000 -19.9430000 -15.4820000  -6.5620000 -18.4510000 -15.7340000
  -6.2070000 -19.2430000 -15.8310000 -17.5880000 -31.3470000  -3.5240000
 -18.1550000 -30.9860000  -4.2060000 -18.0850000 -31.2310000  -2.7140000
 -17.7240000 -31.2860000  -3.5080000  -6.3420000 -17.7150000  -7.6070000
  -5.5670000 -17.8710000  -8.1460000  -6.3730000 -16.7640000  -7.5010000
  -6.2470000 -17.6130000  -7.6620000  -9.7720000 -21.3030000 -13.3780000
 -10.0100000 -22.1160000 -12.9340000 -10.5770000 -21.0250000 -13.8150000
  -9.9050000 -21.3710000 -13.3770000  -4.5790000 -21.8830000  -2.0710000
  -4.3090000 -22.7870000  -1.9110000  -5.5310000 -21.8960000  -1.9700000
  -4.6660000 -22.0000000  -2.0370000  -4.2690000 -26.1780000  -4.3740000
  -4.8790000 -26.9130000  -4.3180000  -4.7010000 -25.5530000  -4.9570000
  -4.4020000 -26.1920000  -4.4410000 -15.1710000 -25.5890000  -5.9490000
 -15.6320000 -25.2450000  -6.7140000 -15.0900000 -26.5280000  -6.1210000
 -15.2200000 -25.6650000  -6.0690000 -16.9750000 -27.9480000 -13.7640000
 -16.0190000 -27.9160000 -13.7370000 -17.2460000 -27.0310000 -13.7260000
 -16.8870000 -27.8270000 -13.7560000  -6.3070000 -30.3970000 -13.4090000
  -5.6870000 -29.9530000 -13.9880000  -7.1170000 -29.8930000 -13.4940000
  -6.3310000 -30.2750000 -13.4940000 -19.6870000 -24.3450000 -17.4480000
 -19.0600000 -24.8680000 -16.9490000 -19.1930000 -24.0400000 -18.2090000
 -19.5430000 -24.3730000 -17.4810000 -14.0150000 -22.2610000 -14.1770000
 -14.7150000 -21.8630000 -14.6940000 -13.5840000 -22.8640000 -14.7830000
 -14.0490000 -22.2870000 -14.3210000  -5.4140000 -24.3180000  -6.3550000
  -5.5870000 -24.3950000  -7.2930000  -4.6310000 -23.7710000  -6.3000000
  -5.3360000 -24.2580000  -6.4680000 -10.5960000 -27.9350000 -12.0360000
 -10.0820000 -28.5340000 -12.5760000 -10.8700000 -27.2440000 -12.6400000
 -10.5660000 -27.9230000 -12.1820000  -3.5680000 -19.3670000  -2.7450000
  -3.1590000 -19.1950000  -1.8970000  -3.8370000 -20.2840000  -2.7000000
  -3.5500000 -19.4620000  -2.6310000  -0.9010000 -20.0750000 -15.7470000
  -0.3140000 -20.2520000 -16.4820000  -1.4920000 -19.3950000 -16.0710000
  -0.9020000 -20.0110000 -15.8830000 -18.1100000 -20.5800000 -17.9900000
 -17.5520000 -21.3380000 -17.8180000 -17.5410000 -19.8250000 -17.8340000
 -17.9650000 -20.5800000 -17.9480000  -1.0610000 -21.7200000  -0.7520000
  -1.8330000 -21.6890000  -0.1880000  -0.4440000 -21.1100000  -0.3460000
  -1.0810000 -21.6380000  -0.6270000  -6.1600000 -26.5930000  -0.6830000
  -6.9710000 -26.5550000  -1.1900000  -5.7960000 -27.4560000  -0.8780000
  -6.2170000 -26.6980000  -0.7730000 -19.2150000 -27.9600000 -11.5480000
 -18.6180000 -27.7050000 -12.2520000 -18.9120000 -27.4650000 -10.7860000
 -19.1000000 -27.8650000 -11.5410000 -16.5350000 -24.4530000  -7.7430000
 -16.2750000 -23.7600000  -8.3510000 -17.4060000 -24.1940000  -7.4440000
 -16.6120000 -24.3310000  -7.7830000  -2.8460000 -26.8630000 -10.7620000
  -1.9930000 -27.2050000 -11.0320000  -2.8240000 -26.8920000  -9.8060000
  -2.7340000 -26.9110000 -10.6750000  -9.9160000 -29.9520000  -2.8570000
 -10.6700000 -30.2820000  -3.3460000 -10.1170000 -30.1500000  -1.9430000
 -10.0380000 -30.0200000  -2.8030000  -6.3660000 -30.6300000  -0.7880000
  -7.1500000 -30.6680000  -0.2400000  -5.7290000 -31.1800000  -0.3340000
  -6.3850000 -30.7050000  -0.6600000  -4.7000000 -26.1920000 -15.5470000
  -4.3040000 -25.8510000 -14.7450000  -4.2090000 -25.7730000 -16.2540000
  -4.5870000 -26.0950000 -15.5350000  -4.5060000 -19.8360000  -6.1100000
  -4.9790000 -19.0030000  -6.1170000  -5.0370000 -20.4170000  -6.6540000
  -4.6350000 -19.8040000  -6.1800000 -14.9950000 -20.9800000 -23.8660000
 -15.9490000 -21.0470000 -23.8980000 -14.8060000 -20.6720000 -22.9800000
 -15.0930000 -20.9480000 -23.7570000 -10.2300000 -23.5350000 -30.7030000
 -10.4040000 -23.3740000 -29.7750000 -10.9950000 -24.0210000 -31.0090000
 -10.3500000 -23.5770000 -30.6230000 -13.6590000 -28.6380000 -35.3720000
 -13.8140000 -28.1810000 -34.5450000 -12.9470000 -29.2480000 -35.1800000
 -13.5880000 -28.6580000 -35.2420000  -3.4980000 -22.4800000 -37.1860000
  -4.3600000 -22.1510000 -37.4420000  -3.5940000 -23.4310000 -37.1870000
  -3.6210000 -22.5590000 -37.2190000 -16.7720000 -22.3820000 -30.4090000
 -16.7350000 -21.4890000 -30.7530000 -17.5710000 -22.4030000 -29.8830000
 -16.8690000 -22.2700000 -30.3860000 -12.0610000 -20.5920000 -33.7200000
 -12.8600000 -21.1190000 -33.7100000 -11.7170000 -20.6950000 -34.6070000
 -12.1190000 -20.6730000 -33.8320000  -8.1530000 -25.6070000 -31.2530000
  -8.5790000 -26.2140000 -31.8570000  -8.8160000 -24.9400000 -31.0750000
  -8.2920000 -25.5990000 -31.3070000  -1.2820000 -30.6840000 -30.1590000
  -2.0610000 -30.5740000 -29.6140000  -0.9380000 -29.7980000 -30.2680000
  -1.3380000 -30.5570000 -30.1030000  -9.9510000 -27.3680000 -22.7270000
 -10.0790000 -28.2340000 -22.3380000  -9.5080000 -27.5430000 -23.5580000
  -9.9110000 -27.5010000 -22.7840000  -7.0750000 -26.4160000 -35.7080000
  -6.3050000 -26.3950000 -35.1410000  -6.7560000 -26.7840000 -36.5320000
  -6.9360000 -26.4600000 -35.7410000  -1.3390000 -26.7800000 -33.9780000
  -1.7050000 -26.1380000 -33.3680000  -2.1040000 -27.2010000 -34.3700000
  -1.4840000 -26.7510000 -33.9500000  -3.3570000 -25.1790000 -36.9610000
  -3.3150000 -25.3130000 -37.9080000  -2.4710000 -24.9120000 -36.7180000
  -3.2380000 -25.1620000 -37.0510000 -17.9540000 -26.7010000 -21.5770000
 -18.8750000 -26.9210000 -21.7170000 -17.8750000 -26.5940000 -20.6300000
 -18.0620000 -26.7160000 -21.4740000  -6.3640000 -23.0120000 -30.3720000
  -6.1880000 -22.1620000 -30.7750000  -7.1230000 -23.3490000 -30.8460000
  -6.4380000 -22.9460000 -30.4840000  -6.5740000 -19.6870000 -29.1200000
  -5.9880000 -18.9500000 -29.2950000  -7.3560000 -19.5010000 -29.6390000
  -6.5990000 -19.5690000 -29.2090000  -7.7850000 -31.5470000 -21.5830000
  -7.1990000 -31.2340000 -20.8940000  -8.5110000 -30.9220000 -21.5830000
  -7.8030000 -31.4280000 -21.4950000 -10.1650000 -31.0460000 -32.0510000
 -10.9900000 -31.0650000 -32.5360000 -10.4160000 -31.2320000 -31.1460000
 -10.3030000 -31.0720000 -31.9970000 -13.0510000 -21.3810000 -27.4340000
 -13.3120000 -21.7560000 -26.5930000 -12.3200000 -21.9260000 -27.7230000
 -12.9910000 -21.4990000 -27.3640000 -14.8140000 -23.1880000 -28.7190000
 -15.5370000 -22.8850000 -29.2670000 -14.2190000 -22.4380000 -28.6710000
 -14.8290000 -23.0530000 -28.7830000 -15.3400000 -29.4240000 -37.3810000
 -15.9430000 -28.6870000 -37.4770000 -14.7110000 -29.1350000 -36.7200000
 -15.3370000 -29.2930000 -37.3090000 -10.9130000 -20.9620000 -36.0880000
 -10.4540000 -21.7840000 -35.9160000 -10.2150000 -20.3220000 -36.2270000
 -10.7650000 -20.9850000 -36.0840000 -12.1900000 -30.4710000 -27.1060000
 -11.3090000 -30.1800000 -26.8740000 -12.1040000 -30.8050000 -27.9990000
 -12.0660000 -30.4760000 -27.1910000 -18.2960000 -24.0080000 -19.7720000
 -19.0580000 -23.4400000 -19.8890000 -18.0910000 -24.3180000 -20.6540000
 -18.3680000 -23.9750000 -19.9000000 -16.2250000 -22.7130000 -18.4350000
 -15.7420000 -22.1530000 -19.0420000 -16.6680000 -23.3490000 -18.9960000
 -16.2200000 -22.7220000 -18.5840000 -12.5990000 -20.9770000 -19.6370000
 -12.0250000 -21.0640000 -18.8760000 -12.6410000 -20.0350000 -19.7990000
 -12.5310000 -20.8680000 -19.5610000  -2.7640000 -26.6440000 -26.8000000
  -2.3240000 -26.1370000 -26.1170000  -3.4360000 -27.1410000 -26.3340000
  -2.7930000 -26.6430000 -26.6530000  -1.5490000 -24.8760000 -24.5720000
  -2.2630000 -24.2710000 -24.7710000  -0.8330000 -24.3130000 -24.2750000
  -1.5480000 -24.7270000 -24.5590000 -12.2440000 -27.1230000 -19.7360000
 -12.4010000 -28.0670000 -19.7720000 -12.3340000 -26.8310000 -20.6430000
 -12.2760000 -27.2070000 -19.8570000  -8.0370000 -23.8150000 -35.6340000
  -7.7330000 -24.7080000 -35.4780000  -7.5100000 -23.2750000 -35.0450000
  -7.9310000 -23.8600000 -35.5390000  -4.9270000 -28.1420000 -25.8800000
  -5.8020000 -28.3990000 -26.1700000  -4.5750000 -28.9250000 -25.4560000
  -4.9940000 -28.2750000 -25.8630000 -15.2180000 -21.2260000 -20.7220000
 -15.4700000 -20.3220000 -20.5310000 -14.3140000 -21.2910000 -20.4190000
 -15.1340000 -21.1180000 -20.6590000  -1.9040000 -22.9030000 -34.0810000
  -1.7830000 -22.0280000 -34.4490000  -1.6950000 -23.4960000 -34.8020000
  -1.8620000 -22.8660000 -34.2210000 -17.5070000 -19.4200000 -32.8980000
 -18.2890000 -19.5520000 -33.4360000 -17.5370000 -18.4950000 -32.6540000
 -17.6110000 -19.3180000 -32.9360000  -7.4560000 -23.6180000 -20.9470000
  -6.8740000 -23.7820000 -20.2060000  -8.0490000 -22.9320000 -20.6390000
  -7.4580000 -23.5510000 -20.8130000 -11.1540000 -23.1550000 -28.2080000
 -11.6340000 -23.9620000 -28.0310000 -10.4240000 -23.1680000 -27.5890000
 -11.1220000 -23.2600000 -28.1060000   2.2580000 -30.2370000 -29.8240000
   2.2720000 -30.5500000 -28.9190000   2.2090000 -29.2840000 -29.7470000
   2.2540000 -30.1550000 -29.6980000 -11.6110000 -30.6530000 -23.8210000
 -12.4560000 -30.9730000 -23.5040000 -11.1380000 -31.4440000 -24.0800000
 -11.6590000 -30.7950000 -23.8130000 -14.6840000 -25.4670000 -19.4870000
 -13.8730000 -25.9550000 -19.6290000 -14.9530000 -25.1900000 -20.3630000
 -14.6150000 -25.4940000 -19.6180000 -15.7760000 -20.8950000 -34.3640000
 -16.3580000 -20.3970000 -33.7910000 -15.5470000 -20.2840000 -35.0640000
 -15.8210000 -20.7530000 -34.3800000  -2.1770000 -29.3360000 -35.9400000
  -2.6340000 -29.5770000 -35.1340000  -1.2510000 -29.4760000 -35.7410000
  -2.1170000 -29.3850000 -35.8110000 -12.4220000 -26.4280000 -22.4590000
 -11.5420000 -26.8000000 -22.5110000 -12.9600000 -27.0080000 -22.9960000
 -12.3780000 -26.5490000 -22.5340000  -3.4330000 -22.7160000 -24.1020000
  -3.7840000 -22.8190000 -23.2170000  -3.2850000 -21.7740000 -24.1920000
  -3.4590000 -22.6090000 -24.0000000  -1.2960000 -20.9490000 -22.2230000
  -1.0980000 -21.3450000 -21.3730000  -1.9670000 -20.2940000 -22.0320000
  -1.3570000 -20.9160000 -22.0900000  -5.9780000 -28.1700000 -22.8100000
  -6.5350000 -28.5650000 -23.4820000  -6.5540000 -27.5600000 -22.3500000
  -6.1230000 -28.1420000 -22.8370000  -2.0640000 -28.9090000 -19.6160000
  -2.8870000 -28.5690000 -19.9650000  -2.2080000 -28.9650000 -18.6710000
  -2.1870000 -28.8730000 -19.5400000 -15.1390000 -28.5920000 -25.1840000
 -15.5160000 -28.7190000 -24.3140000 -15.7020000 -29.1030000 -25.7660000
 -15.2590000 -28.6730000 -25.1470000  -6.1320000 -27.0820000 -29.7290000
  -5.5870000 -26.5810000 -29.1220000  -6.8260000 -26.4750000 -29.9860000
  -6.1510000 -26.9410000 -29.6840000 -18.1490000 -25.5160000 -28.9080000
 -17.7550000 -25.5860000 -29.7780000 -17.5370000 -25.9710000 -28.3310000
 -18.0200000 -25.5830000 -28.9460000  -3.4280000 -29.8360000 -33.5360000
  -3.4710000 -29.2170000 -32.8060000  -3.7940000 -30.6470000 -33.1840000
  -3.4800000 -29.8600000 -33.3970000  -8.6780000 -28.9720000 -33.0570000
  -9.3500000 -29.6530000 -33.0270000  -8.5990000 -28.7550000 -33.9860000
  -8.7540000 -29.0310000 -33.1720000  -7.4920000 -19.9930000 -23.9390000
  -8.0410000 -20.0620000 -24.7190000  -7.1280000 -20.8700000 -23.8230000
  -7.5150000 -20.1140000 -24.0240000 -13.0590000 -29.9980000 -19.9880000
 -13.1730000 -30.2820000 -20.8950000 -13.9490000 -29.8950000 -19.6550000
 -13.1870000 -30.0210000 -20.0620000 -12.6280000 -25.4800000 -27.1100000
 -12.6680000 -26.4350000 -27.1470000 -13.0840000 -25.2510000 -26.3000000
 -12.6910000 -25.5720000 -27.0110000  -4.6630000 -28.8260000 -20.4280000
  -5.3540000 -29.4660000 -20.2600000  -4.8710000 -28.4700000 -21.2910000
  -4.7780000 -28.8630000 -20.5170000 -19.0450000 -29.7240000 -33.2910000
 -18.3800000 -29.1240000 -32.9530000 -19.8770000 -29.2900000 -33.1020000
 -19.0660000 -29.5920000 -33.2230000 -16.7130000 -25.2800000 -31.0890000
 -16.0340000 -25.5590000 -30.4750000 -16.6140000 -24.3300000 -31.1380000
 -16.6130000 -25.1930000 -31.0160000 -11.2980000 -26.5430000 -36.0020000
 -11.6810000 -26.8530000 -36.8230000 -11.0590000 -25.6320000 -36.1770000
 -11.3160000 -26.4660000 -36.1290000  -8.7850000 -22.8680000 -26.7000000
  -8.8490000 -23.3880000 -25.8980000  -8.2400000 -22.1190000 -26.4570000
  -8.7240000 -22.8390000 -26.5660000  -3.2860000 -23.9720000 -30.0810000
  -4.2010000 -23.9620000 -30.3640000  -3.1640000 -24.8400000 -29.6960000
  -3.3880000 -24.0820000 -30.0680000 -13.6640000 -27.6550000 -32.9970000
 -12.8410000 -27.1690000 -33.0350000 -13.6130000 -28.1500000 -32.1800000
 -13.5520000 -27.6560000 -32.8980000 -16.9740000 -19.7800000 -28.9210000
 -17.5150000 -19.3570000 -28.2540000 -16.0740000 -19.5830000 -28.6590000
 -16.9280000 -19.7000000 -28.8020000 -11.3690000 -26.0180000 -32.9950000
 -11.8920000 -25.3150000 -32.6090000 -11.3570000 -25.8220000 -33.9310000
 -11.4340000 -25.9030000 -33.0650000  -4.3260000 -31.1510000 -36.8310000
  -3.8480000 -31.5050000 -37.5800000  -3.8240000 -30.3800000 -36.5680000
  -4.2010000 -31.0970000 -36.8930000 -15.4330000 -25.7150000 -22.0010000
 -15.4700000 -25.3980000 -22.9030000 -16.3040000 -26.0740000 -21.8360000
 -15.5490000 -25.7210000 -22.0950000 -11.5240000 -23.9750000 -23.4260000
 -12.3070000 -23.5690000 -23.7950000 -11.8120000 -24.8460000 -23.1530000
 -11.6610000 -24.0350000 -23.4380000 -17.7860000 -21.9630000 -26.6830000
 -17.1310000 -21.6020000 -27.2800000 -18.4650000 -22.3180000 -27.2580000
 -17.7900000 -21.9620000 -26.8330000 -12.4980000 -28.0180000 -24.9470000
 -12.1730000 -28.8210000 -24.5400000 -13.3670000 -28.2500000 -25.2730000
 -12.5680000 -28.1500000 -24.9370000 -16.8820000 -27.0850000 -18.9780000
 -16.0790000 -26.5740000 -19.0880000 -17.3320000 -26.6660000 -18.2440000
 -16.8380000 -26.9650000 -18.8980000  -6.3860000 -29.9360000 -29.7180000
  -5.8880000 -30.1430000 -30.5090000  -6.2020000 -29.0110000 -29.5540000
  -6.2990000 -29.8440000 -29.7980000 -17.7970000 -26.1530000 -35.5190000
 -17.0300000 -26.4760000 -35.0440000 -18.5400000 -26.3920000 -34.9640000
 -17.7950000 -26.2250000 -35.3870000  -1.6980000 -19.1650000 -27.6500000
  -1.8450000 -20.1070000 -27.5690000  -1.0440000 -18.9660000 -26.9790000
  -1.6330000 -19.2600000 -27.5540000  -0.3650000 -22.8860000 -28.8640000
  -1.2090000 -22.4730000 -28.6800000  -0.4970000 -23.8080000 -28.6460000
  -0.4900000 -22.9510000 -28.8130000  -9.0650000 -29.3400000 -29.0950000
  -9.4720000 -28.5800000 -29.5110000  -8.2030000 -29.4050000 -29.5050000
  -9.0070000 -29.2510000 -29.2010000  -4.5280000 -28.1010000 -31.6130000
  -3.8540000 -27.6900000 -31.0730000  -5.3380000 -27.6550000 -31.3670000
  -4.5450000 -27.9910000 -31.5130000 -16.3740000 -27.6100000 -28.1100000
 -15.4170000 -27.6260000 -28.1290000 -16.6190000 -28.4240000 -27.6700000
 -16.2840000 -27.7160000 -28.0560000  -0.9060000 -28.6720000 -26.6270000
  -1.2950000 -29.1460000 -25.8910000  -1.4410000 -27.8830000 -26.7130000
  -1.0240000 -28.6320000 -26.5440000  -8.9970000 -24.2470000 -24.2620000
  -8.6040000 -23.4260000 -23.9660000  -9.9100000 -24.1920000 -23.9800000
  -9.0630000 -24.1350000 -24.1880000  -3.7730000 -30.9640000 -25.1130000
  -4.0380000 -31.6150000 -24.4630000  -3.5540000 -31.4760000 -25.8910000
  -3.7790000 -31.1120000 -25.1290000 -13.0270000 -29.1700000 -30.8880000
 -12.8390000 -29.9220000 -31.4500000 -12.1710000 -28.7800000 -30.7180000
 -12.8940000 -29.2160000 -30.9380000 -10.5770000 -23.9630000 -36.6050000
  -9.7330000 -24.0010000 -36.1540000 -10.3540000 -23.7580000 -37.5130000
 -10.4400000 -23.9420000 -36.6630000 -13.5260000 -28.1730000 -28.3360000
 -13.2690000 -28.5910000 -29.1580000 -13.4420000 -28.8650000 -27.6800000
 -13.4820000 -28.3150000 -28.3570000  -6.2140000 -23.7180000 -27.8770000
  -6.1160000 -23.4710000 -28.7970000  -7.0680000 -23.3680000 -27.6250000
  -6.3110000 -23.6420000 -27.9620000  -8.8240000 -19.3040000 -30.5380000
  -9.0090000 -20.1310000 -30.9840000  -9.1360000 -18.6310000 -31.1430000
  -8.8880000 -19.3240000 -30.6730000  -7.2360000 -20.0690000 -37.4480000
  -7.0780000 -19.2300000 -37.8810000  -6.9740000 -19.9220000 -36.5390000
  -7.1820000 -19.9430000 -37.3870000  -5.1260000 -21.2920000 -27.3380000
  -5.6700000 -20.6920000 -27.8490000  -5.5170000 -22.1530000 -27.4840000
  -5.2450000 -21.3250000 -27.4220000  -1.3510000 -29.8830000 -23.7150000
  -2.2470000 -30.2080000 -23.8020000  -1.4510000 -28.9880000 -23.3900000
  -1.4790000 -29.8100000 -23.6840000 -11.0340000 -18.9240000 -28.3650000
 -11.0680000 -19.6110000 -27.7000000 -10.5580000 -19.3190000 -29.0950000
 -10.9780000 -19.0620000 -28.3730000  -9.1550000 -28.1960000 -35.6770000
  -8.4250000 -27.5760000 -35.6880000  -9.9370000 -27.6450000 -35.7080000
  -9.1620000 -28.0460000 -35.6830000  -9.5230000 -30.8150000 -26.5610000
  -9.9720000 -31.5690000 -26.1790000  -8.8010000 -31.1950000 -27.0610000
  -9.4880000 -30.9600000 -26.5760000  -7.9880000 -26.6910000 -24.8490000
  -8.2640000 -25.8670000 -24.4470000  -7.0370000 -26.7050000 -24.7400000
  -7.9010000 -26.5870000 -24.7840000  -8.6320000 -19.4680000 -26.6000000
  -7.8420000 -18.9300000 -26.6540000  -9.2320000 -19.0760000 -27.2340000
  -8.6080000 -19.3490000 -26.6880000 -16.6020000 -28.8430000 -22.7120000
 -17.2810000 -28.2050000 -22.4920000 -17.0120000 -29.6920000 -22.5490000
 -16.7420000 -28.8700000 -22.6630000  -5.6420000 -20.8380000 -31.7480000
  -6.0100000 -20.2570000 -31.0830000  -4.7510000 -20.5150000 -31.8820000
  -5.5750000 -20.7220000 -31.6800000  -7.5370000 -28.4010000 -26.7630000
  -7.8050000 -27.7580000 -26.1060000  -8.3360000 -28.5830000 -27.2590000
  -7.6740000 -28.3420000 -26.7430000 -18.9950000 -30.7630000 -20.1430000
 -19.5950000 -30.0300000 -20.0020000 -18.4480000 -30.7800000 -19.3570000
 -19.0020000 -30.6710000 -20.0240000  -7.5600000 -30.0670000 -24.2010000
  -7.7230000 -29.7580000 -25.0920000  -8.4210000 -30.3310000 -23.8780000
  -7.6910000 -30.0610000 -24.2730000 -14.7630000 -25.1470000 -35.7710000
 -14.6770000 -25.1980000 -36.7230000 -15.3160000 -24.3790000 -35.6220000
 -14.8230000 -25.0550000 -35.8740000  -7.6280000 -26.4050000 -21.6650000
  -8.4460000 -26.5600000 -22.1360000  -7.5800000 -25.4520000 -21.5760000
  -7.7260000 -26.3030000 -21.7140000 -17.2500000 -29.9260000 -26.9120000
 -18.0280000 -29.4200000 -26.6810000 -17.5120000 -30.8390000 -26.7890000
 -17.3820000 -29.9780000 -26.8670000  -1.8050000 -20.4310000 -24.8650000
  -1.5230000 -20.5280000 -23.9550000  -2.5860000 -19.8800000 -24.8160000
  -1.8690000 -20.3730000 -24.7420000 -14.1530000 -25.7690000 -29.8060000
 -14.2400000 -24.9890000 -29.2570000 -14.0810000 -26.4930000 -29.1830000
 -14.1550000 -25.7620000 -29.6560000 -14.0510000 -30.6280000 -22.6220000
 -14.1420000 -30.7480000 -23.5670000 -14.7750000 -30.0500000 -22.3840000
 -14.1550000 -30.5690000 -22.7130000  -1.8840000 -21.6530000 -31.4300000
  -1.8140000 -22.2820000 -30.7130000  -1.8180000 -22.1850000 -32.2230000
  -1.8670000 -21.8010000 -31.4400000 -12.4260000 -31.0660000 -33.2840000
 -12.0530000 -31.1310000 -34.1630000 -13.3310000 -31.3620000 -33.3850000
 -12.4940000 -31.1130000 -33.4090000 -12.7270000 -23.9090000 -34.8500000
 -13.4590000 -24.3980000 -35.2260000 -12.0670000 -23.8960000 -35.5420000
 -12.7370000 -23.9700000 -34.9860000 -17.7810000 -20.5640000 -24.2790000
 -18.0750000 -20.8370000 -25.1490000 -18.0900000 -19.6620000 -24.1950000
 -17.8590000 -20.4840000 -24.3800000  -9.2360000 -30.4980000 -37.6600000
  -9.2550000 -29.8480000 -36.9580000  -8.8810000 -31.2860000 -37.2480000
  -9.1930000 -30.5150000 -37.5180000 -13.8660000 -23.2000000 -24.8810000
 -14.4360000 -22.5130000 -24.5340000 -14.3180000 -24.0160000 -24.6670000
 -13.9970000 -23.2160000 -24.8090000  -7.2740000 -21.6190000 -33.7900000
  -7.9590000 -21.6910000 -33.1250000  -6.4760000 -21.4410000 -33.2930000
  -7.2600000 -21.6060000 -33.6410000  -6.2650000 -22.6470000 -37.5430000
  -6.6650000 -21.7800000 -37.4930000  -6.7410000 -23.1680000 -36.8960000
  -6.3770000 -22.6020000 -37.4540000 -12.8860000 -24.3260000 -31.6870000
 -13.5220000 -24.7810000 -31.1360000 -13.3740000 -23.5920000 -32.0600000
 -13.0290000 -24.2900000 -31.6640000  -7.0080000 -22.6550000 -23.4820000
  -7.2110000 -22.9650000 -22.6000000  -6.4940000 -23.3630000 -23.8720000
  -6.9680000 -22.7860000 -23.4190000  -4.3630000 -25.0530000 -20.8350000
  -5.0030000 -25.5860000 -20.3630000  -4.4010000 -25.3760000 -21.7360000
  -4.4500000 -25.1630000 -20.8900000 -10.5960000 -22.6850000 -20.7000000
 -10.9830000 -23.0500000 -21.4960000 -11.2440000 -22.0560000 -20.3850000
 -10.7290000 -22.6530000 -20.7610000 -18.2360000 -23.3310000 -23.3310000
 -18.6180000 -22.4880000 -23.0870000 -17.4120000 -23.1050000 -23.7620000
 -18.1800000 -23.1940000 -23.3550000  -1.6960000 -27.2160000 -23.0180000
  -2.5870000 -27.0000000 -22.7400000  -1.4190000 -26.4640000 -23.5400000
  -1.7750000 -27.0920000 -23.0490000  -2.6280000 -25.1940000 -32.5860000
  -2.6060000 -25.0780000 -31.6360000  -2.4550000 -24.3210000 -32.9370000
  -2.6030000 -25.0670000 -32.5090000  -3.2530000 -19.2540000 -32.2790000
  -3.5170000 -19.2900000 -33.1980000  -2.6310000 -19.9750000 -32.1800000
  -3.2070000 -19.3510000 -32.3840000  -6.0790000 -19.2580000 -34.7680000
  -6.5950000 -19.9430000 -34.3420000  -6.5620000 -18.4510000 -34.5940000
  -6.2070000 -19.2430000 -34.6910000 -17.5880000 -31.3470000 -22.3840000
 -18.1550000 -30.9860000 -23.0660000 -18.0850000 -31.2310000 -21.5740000
 -17.7240000 -31.2860000 -22.3680000  -6.3420000 -17.7150000 -26.4670000
  -5.5670000 -17.8710000 -27.0060000  -6.3730000 -16.7640000 -26.3610000
  -6.2470000 -17.6130000 -26.5220000  -9.7720000 -21.3030000 -32.2380000
 -10.0100000 -22.1160000 -31.7940000 -10.5770000 -21.0250000 -32.6750000
  -9.9050000 -21.3710000 -32.2370000  -4.5790000 -21.8830000 -20.9310000
  -4.3090000 -22.7870000 -20.7710000  -5.5310000 -21.8960000 -20.8300000
  -4.6660000 -22.0000000 -20.8970000  -4.2690000 -26.1780000 -23.2340000
  -4.8790000 -26.9130000 -23.1780000  -4.7010000 -25.5530000 -23.8170000
  -4.4020000 -26.1920000 -23.3010000 -15.1710000 -25.5890000 -24.8090000
 -15.6320000 -25.2450000 -25.5740000 -15.0900000 -26.5280000 -24.9810000
 -15.2200000 -25.6650000 -24.9290000 -16.9750000 -27.9480000 -32.6240000
 -16.0190000 -27.9160000 -32.5970000 -17.2460000 -27.0310000 -32.5860000
 -16.8870000 -27.8270000 -32.6160000  -6.3070000 -30.3970000 -32.2690000
  -5.6870000 -29.9530000 -32.8480000  -7.1170000 -29.8930000 -32.3540000
  -6.3310000 -30.2750000 -32.3540000 -19.6870000 -24.3450000 -36.3080000
 -19.0600000 -24.8680000 -35.8090000 -19.1930000 -24.0400000 -37.0690000
 -19.5430000 -24.3730000 -36.3410000 -14.0150000 -22.2610000 -33.0370000
 -14.7150000 -21.8630000 -33.5540000 -13.5840000 -22.8640000 -33.6430000
 -14.0490000 -22.2870000 -33.1810000  -5.4140000 -24.3180000 -25.2150000
  -5.5870000 -24.3950000 -26.1530000  -4.6310000 -23.7710000 -25.1600000
  -5.3360000 -24.2580000 -25.3280000 -10.5960000 -27.9350000 -30.8960000
 -10.0820000 -28.5340000 -31.4360000 -10.8700000 -27.2440000 -31.5000000
 -10.5660000 -27.9230000 -31.0420000  -3.5680000 -19.3670000 -21.6050000
  -3.1590000 -19.1950000 -20.7570000  -3.8370000 -20.2840000 -21.5600000
  -3.5500000 -19.4620000 -21.4910000  -0.9010000 -20.0750000 -34.6070000
  -0.3140000 -20.2520000 -35.3420000  -1.4920000 -19.3950000 -34.9310000
  -0.9020000 -20.0110000 -34.7430000 -18.1100000 -20.5800000 -36.8500000
 -17.5520000 -21.3380000 -36.6780000 -17.5410000 -19.8250000 -36.6940000
 -17.9650000 -20.5800000 -36.8080000  -1.0610000 -21.7200000 -19.6120000
  -1.8330000 -21.6890000 -19.0480000  -0.4440000 -21.1100000 -19.2060000
  -1.0810000 -21.6380000 -19.4870000  -6.1600000 -26.5930000 -19.5430000
  -6.9710000 -26.5550000 -20.0500000  -5.7960000 -27.4560000 -19.7380000
  -6.2170000 -26.6980000 -19.6330000 -19.2150000 -27.9600000 -30.4080000
 -18.6180000 -27.7050000 -31.1120000 -18.9120000 -27.4650000 -29.6460000
 -19.1000000 -27.8650000 -30.4010000 -16.5350000 -24.4530000 -26.6030000
 -16.2750000 -23.7600000 -27.2110000 -17.4060000 -24.1940000 -26.3040000
 -16.6120000 -24.3310000 -26.6430000  -2.8460000 -26.8630000 -29.6220000
  -1.9930000 -27.2050000 -29.8920000  -2.8240000 -26.8920000 -28.6660000
  -2.7340000 -26.9110000 -29.5350000  -9.9160000 -29.9520000 -21.7170000
 -10.6700000 -30.2820000 -22.2060000 -10.1170000 -30.1500000 -20.8030000
 -10.0380000 -30.0200000 -21.6630000  -6.3660000 -30.6300000 -19.6480000
  -7.1500000 -30.6680000 -19.1000000  -5.7290000 -31.1800000 -19.1940000
  -6.3850000 -30.7050000 -19.5200000  -4.7000000 -26.1920000 -34.4070000
  -4.3040000 -25.8510000 -33.6050000  -4.2090000 -25.7730000 -35.1140000
  -4.5870000 -26.0950000 -34.3950000  -4.5060000 -19.8360000 -24.9700000
  -4.9790000 -19.0030000 -24.9770000  -5.0370000 -20.4170000 -25.5140000
  -4.6350000 -19.8040000 -25.0400000 -14.9950000 -20.9800000 -42.7260000
 -15.9490000 -21.0470000 -42.7580000 -14.8060000 -20.6720000 -41.8400000
 -15.0930000 -20.9480000 -42.6170000  -9.9510000 -27.3680000 -41.5870000
 -10.0790000 -28.2340000 -41.1980000  -9.5080000 -27.5430000 -42.4180000
  -9.9110000 -27.5010000 -41.6440000 -17.9540000 -26.7010000 -40.4370000
 -18.8750000 -26.9210000 -40.5770000 -17.8750000 -26.5940000 -39.4900000
 -18.0620000 -26.7160000 -40.3340000  -6.5740000 -19.6870000 -47.9800000
  -5.9880000 -18.9500000 -48.1550000  -7.3560000 -19.5010000 -48.4990000
  -6.5990000 -19.5690000 -48.0690000  -7.7850000 -31.5470000 -40.4430000
  -7.1990000 -31.2340000 -39.7540000  -8.5110000 -30.9220000 -40.4430000
  -7.8030000 -31.4280000 -40.3550000 -13.0510000 -21.3810000 -46.2940000
 -13.3120000 -21.7560000 -45.4530000 -12.3200000 -21.9260000 -46.5830000
 -12.9910000 -21.4990000 -46.2240000 -14.8140000 -23.1880000 -47.5790000
 -15.5370000 -22.8850000 -48.1270000 -14.2190000 -22.4380000 -47.5310000
 -14.8290000 -23.0530000 -47.6430000 -12.1900000 -30.4710000 -45.9660000
 -11.3090000 -30.1800000 -45.7330000 -12.1040000 -30.8050000 -46.8580000
 -12.0660000 -30.4760000 -46.0510000 -18.2960000 -24.0080000 -38.6320000
 -19.0580000 -23.4400000 -38.7490000 -18.0910000 -24.3180000 -39.5140000
 -18.3680000 -23.9750000 -38.7600000 -16.2250000 -22.7130000 -37.2950000
 -15.7420000 -22.1530000 -37.9020000 -16.6680000 -23.3490000 -37.8560000
 -16.2200000 -22.7220000 -37.4440000 -12.5990000 -20.9770000 -38.4970000
 -12.0250000 -21.0640000 -37.7360000 -12.6410000 -20.0350000 -38.6590000
 -12.5310000 -20.8680000 -38.4210000  -2.7640000 -26.6440000 -45.6600000
  -2.3240000 -26.1370000 -44.9770000  -3.4360000 -27.1410000 -45.1940000
  -2.7930000 -26.6430000 -45.5130000  -1.5490000 -24.8760000 -43.4320000
  -2.2630000 -24.2710000 -43.6310000  -0.8330000 -24.3130000 -43.1350000
  -1.5480000 -24.7270000 -43.4190000 -12.2440000 -27.1230000 -38.5960000
 -12.4010000 -28.0670000 -38.6320000 -12.3340000 -26.8310000 -39.5030000
 -12.2760000 -27.2070000 -38.7170000  -4.9270000 -28.1420000 -44.7400000
  -5.8020000 -28.3990000 -45.0300000  -4.5750000 -28.9250000 -44.3150000
  -4.9940000 -28.2750000 -44.7230000 -15.2180000 -21.2260000 -39.5820000
 -15.4700000 -20.3220000 -39.3910000 -14.3140000 -21.2910000 -39.2790000
 -15.1340000 -21.1180000 -39.5190000  -7.4560000 -23.6180000 -39.8070000
  -6.8740000 -23.7820000 -39.0660000  -8.0490000 -22.9320000 -39.4990000
  -7.4580000 -23.5510000 -39.6730000 -11.1540000 -23.1550000 -47.0680000
 -11.6340000 -23.9620000 -46.8910000 -10.4240000 -23.1680000 -46.4490000
 -11.1220000 -23.2600000 -46.9660000   2.2580000 -30.2370000 -48.6840000
   2.2720000 -30.5500000 -47.7790000   2.2090000 -29.2840000 -48.6070000
   2.2540000 -30.1550000 -48.5580000 -11.6110000 -30.6530000 -42.6810000
 -12.4560000 -30.9730000 -42.3640000 -11.1380000 -31.4440000 -42.9400000
 -11.6590000 -30.7950000 -42.6730000 -14.6840000 -25.4670000 -38.3470000
 -13.8730000 -25.9550000 -38.4890000 -14.9530000 -25.1900000 -39.2230000
 -14.6150000 -25.4940000 -38.4780000 -12.4220000 -26.4280000 -41.3190000
 -11.5420000 -26.8000000 -41.3710000 -12.9600000 -27.0080000 -41.8560000
 -12.3780000 -26.5490000 -41.3940000  -3.4330000 -22.7160000 -42.9620000
  -3.7840000 -22.8190000 -42.0770000  -3.2850000 -21.7740000 -43.0520000
  -3.4590000 -22.6090000 -42.8600000  -1.2960000 -20.9490000 -41.0830000
  -1.0980000 -21.3450000 -40.2330000  -1.9670000 -20.2940000 -40.8920000
  -1.3570000 -20.9160000 -40.9500000  -5.9780000 -28.1700000 -41.6700000
  -6.5350000 -28.5650000 -42.3420000  -6.5540000 -27.5600000 -41.2100000
  -6.1230000 -28.1420000 -41.6970000  -2.0640000 -28.9090000 -38.4760000
  -2.8870000 -28.5690000 -38.8250000  -2.2080000 -28.9650000 -37.5310000
  -2.1870000 -28.8730000 -38.4000000 -15.1390000 -28.5920000 -44.0440000
 -15.5160000 -28.7190000 -43.1740000 -15.7020000 -29.1030000 -44.6260000
 -15.2590000 -28.6730000 -44.0070000  -6.1320000 -27.0820000 -48.5890000
  -5.5870000 -26.5810000 -47.9820000  -6.8260000 -26.4750000 -48.8460000
  -6.1510000 -26.9410000 -48.5440000 -18.1490000 -25.5160000 -47.7680000
 -17.7550000 -25.5860000 -48.6380000 -17.5370000 -25.9710000 -47.1900000
 -18.0200000 -25.5830000 -47.8060000  -7.4920000 -19.9930000 -42.7990000
  -8.0410000 -20.0620000 -43.5790000  -7.1280000 -20.8700000 -42.6830000
  -7.5150000 -20.1140000 -42.8840000 -13.0590000 -29.9980000 -38.8480000
 -13.1730000 -30.2820000 -39.7550000 -13.9490000 -29.8950000 -38.5150000
 -13.1870000 -30.0210000 -38.9220000 -12.6280000 -25.4800000 -45.9700000
 -12.6680000 -26.4350000 -46.0070000 -13.0840000 -25.2510000 -45.1600000
 -12.6910000 -25.5720000 -45.8710000  -4.6630000 -28.8260000 -39.2880000
  -5.3540000 -29.4660000 -39.1200000  -4.8710000 -28.4700000 -40.1510000
  -4.7780000 -28.8630000 -39.3770000  -8.7850000 -22.8680000 -45.5600000
  -8.8490000 -23.3880000 -44.7580000  -8.2400000 -22.1190000 -45.3170000
  -8.7240000 -22.8390000 -45.4260000 -16.9740000 -19.7800000 -47.7810000
 -17.5150000 -19.3570000 -47.1140000 -16.0740000 -19.5830000 -47.5190000
 -16.9280000 -19.7000000 -47.6620000 -15.4330000 -25.7150000 -40.8610000
 -15.4700000 -25.3980000 -41.7630000 -16.3040000 -26.0740000 -40.6960000
 -15.5490000 -25.7210000 -40.9550000 -11.5240000 -23.9750000 -42.2860000
 -12.3070000 -23.5690000 -42.6550000 -11.8120000 -24.8460000 -42.0130000
 -11.6610000 -24.0350000 -42.2980000 -17.7860000 -21.9630000 -45.5430000
 -17.1310000 -21.6020000 -46.1400000 -18.4650000 -22.3180000 -46.1180000
 -17.7900000 -21.9620000 -45.6930000 -12.4980000 -28.0180000 -43.8070000
 -12.1730000 -28.8210000 -43.4000000 -13.3670000 -28.2500000 -44.1330000
 -12.5680000 -28.1500000 -43.7970000 -16.8820000 -27.0850000 -37.8380000
 -16.0790000 -26.5740000 -37.9470000 -17.3320000 -26.6660000 -37.1040000
 -16.8380000 -26.9650000 -37.7580000  -1.6980000 -19.1650000 -46.5100000
  -1.8450000 -20.1070000 -46.4280000  -1.0440000 -18.9660000 -45.8390000
  -1.6330000 -19.2600000 -46.4140000  -0.3650000 -22.8860000 -47.7240000
  -1.2090000 -22.4730000 -47.5400000  -0.4970000 -23.8080000 -47.5060000
  -0.4900000 -22.9510000 -47.6730000  -9.0650000 -29.3400000 -47.9550000
  -9.4720000 -28.5800000 -48.3710000  -8.2030000 -29.4050000 -48.3650000
  -9.0070000 -29.2510000 -48.0610000 -16.3740000 -27.6100000 -46.9700000
 -15.4170000 -27.6260000 -46.9890000 -16.6190000 -28.4240000 -46.5300000
 -16.2840000 -27.7160000 -46.9160000  -0.9060000 -28.6720000 -45.4870000
  -1.2950000 -29.1460000 -44.7510000  -1.4410000 -27.8830000 -45.5730000
  -1.0240000 -28.6320000 -45.4040000  -8.9970000 -24.2470000 -43.1220000
  -8.6040000 -23.4260000 -42.8260000  -9.9100000 -24.1920000 -42.8400000
  -9.0630000 -24.1350000 -43.0480000  -3.7730000 -30.9640000 -43.9730000
  -4.0380000 -31.6150000 -43.3230000  -3.5540000 -31.4760000 -44.7510000
  -3.7790000 -31.1120000 -43.9890000 -13.5260000 -28.1730000 -47.1960000
 -13.2690000 -28.5910000 -48.0180000 -13.4420000 -28.8650000 -46.5400000
 -13.4820000 -28.3150000 -47.2170000  -6.2140000 -23.7180000 -46.7370000
  -6.1160000 -23.4710000 -47.6570000  -7.0680000 -23.3680000 -46.4850000
  -6.3110000 -23.6420000 -46.8220000  -5.1260000 -21.2920000 -46.1980000
  -5.6700000 -20.6920000 -46.7090000  -5.5170000 -22.1530000 -46.3440000
  -5.2450000 -21.3250000 -46.2820000  -1.3510000 -29.8830000 -42.5750000
  -2.2470000 -30.2080000 -42.6620000  -1.4510000 -28.9880000 -42.2500000
  -1.4790000 -29.8100000 -42.5440000 -11.0340000 -18.9240000 -47.2250000
 -11.0680000 -19.6110000 -46.5600000 -10.5580000 -19.3190000 -47.9550000
 -10.9780000 -19.0620000 -47.2330000  -9.5230000 -30.8150000 -45.4210000
  -9.9720000 -31.5690000 -45.0390000  -8.8010000 -31.1950000 -45.9210000
  -9.4880000 -30.9600000 -45.4360000  -7.9880000 -26.6910000 -43.7090000
  -8.2640000 -25.8670000 -43.3070000  -7.0370000 -26.7050000 -43.6000000
  -7.9010000 -26.5870000 -43.6440000  -8.6320000 -19.4680000 -45.4600000
  -7.8420000 -18.9300000 -45.5140000  -9.2320000 -19.0760000 -46.0940000
  -8.6080000 -19.3490000 -45.5480000 -16.6020000 -28.8430000 -41.5720000
 -17.2810000 -28.2050000 -41.3520000 -17.0120000 -29.6920000 -41.4090000
 -16.7420000 -28.8700000 -41.5230000  -7.5370000 -28.4010000 -45.6230000
  -7.8050000 -27.7580000 -44.9650000  -8.3360000 -28.5830000 -46.1190000
  -7.6740000 -28.3420000 -45.6030000 -18.9950000 -30.7630000 -39.0030000
 -19.5950000 -30.0300000 -38.8620000 -18.4480000 -30.7800000 -38.2170000
 -19.0020000 -30.6710000 -38.8840000  -7.5600000 -30.0670000 -43.0610000
  -7.7230000 -29.7580000 -43.9520000  -8.4210000 -30.3310000 -42.7380000
  -7.6910000 -30.0610000 -43.1330000  -7.6280000 -26.4050000 -40.5250000
  -8.4460000 -26.5600000 -40.9960000  -7.5800000 -25.4520000 -40.4360000
  -7.7260000 -26.3030000 -40.5740000 -17.2500000 -29.9260000 -45.7720000
 -18.0280000 -29.4200000 -45.5410000 -17.5120000 -30.8390000 -45.6490000
 -17.3820000 -29.9780000 -45.7270000  -1.8050000 -20.4310000 -43.7250000
  -1.5230000 -20.5280000 -42.8150000  -2.5860000 -19.8800000 -43.6760000
  -1.8690000 -20.3730000 -43.6020000 -14.1530000 -25.7690000 -48.6660000
 -14.2400000 -24.9890000 -48.1170000 -14.0810000 -26.4930000 -48.0430000
 -14.1550000 -25.7620000 -48.5160000 -14.0510000 -30.6280000 -41.4820000
 -14.1420000 -30.7480000 -42.4270000 -14.7750000 -30.0500000 -41.2440000
 -14.1550000 -30.5690000 -41.5730000 -17.7810000 -20.5640000 -43.1390000
 -18.0750000 -20.8370000 -44.0090000 -18.0900000 -19.6620000 -43.0550000
 -17.8590000 -20.4840000 -43.2400000 -13.8660000 -23.2000000 -43.7410000
 -14.4360000 -22.5130000 -43.3940000 -14.3180000 -24.0160000 -43.5270000
 -13.9970000 -23.2160000 -43.6690000  -7.0080000 -22.6550000 -42.3420000
  -7.2110000 -22.9650000 -41.4600000  -6.4940000 -23.3630000 -42.7320000
  -6.9680000 -22.7860000 -42.2790000  -4.3630000 -25.0530000 -39.6950000
  -5.0030000 -25.5860000 -39.2230000  -4.4010000 -25.3760000 -40.5960000
  -4.4500000 -25.1630000 -39.7500000 -10.5960000 -22.6850000 -39.5600000
 -10.9830000 -23.0500000 -40.3560000 -11.2440000 -22.0560000 -39.2450000
 -10.7290000 -22.6530000 -39.6210000 -18.2360000 -23.3310000 -42.1900000
 -18.6180000 -22.4880000 -41.9470000 -17.4120000 -23.1050000 -42.6220000
 -18.1800000 -23.1940000 -42.2150000 -17.5880000 -31.3470000 -41.2440000
 -18.1550000 -30.9860000 -41.9260000 -18.0850000 -31.2310000 -40.4340000
 -17.7240000 -31.2860000 -41.2280000  -6.3420000 -17.7150000 -45.3270000
  -5.5670000 -17.8710000 -45.8660000  -6.3730000 -16.7640000 -45.2210000
  -6.2470000 -17.6130000 -45.3820000  -4.5790000 -21.8830000 -39.7910000
  -4.3090000 -22.7870000 -39.6310000  -5.5310000 -21.8960000 -39.6900000
  -4.6660000 -22.0000000 -39.7570000  -4.2690000 -26.1780000 -42.0940000
  -4.8790000 -26.9130000 -42.0380000  -4.7010000 -25.5530000 -42.6770000
  -4.4020000 -26.1920000 -42.1610000 -15.1710000 -25.5890000 -43.6690000
 -15.6320000 -25.2450000 -44.4340000 -15.0900000 -26.5280000 -43.8400000
 -15.2200000 -25.6650000 -43.7890000  -5.4140000 -24.3180000 -44.0750000
  -5.5870000 -24.3950000 -45.0130000  -4.6310000 -23.7710000 -44.0200000
  -5.3360000 -24.2580000 -44.1880000  -3.5680000 -19.3670000 -40.4650000
  -3.1590000 -19.1950000 -39.6170000  -3.8370000 -20.2840000 -40.4200000
  -3.5500000 -19.4620000 -40.3510000  -1.0610000 -21.7200000 -38.4720000
  -1.8330000 -21.6890000 -37.9080000  -0.4440000 -21.1100000 -38.0660000
  -1.0810000 -21.6380000 -38.3470000  -6.1600000 -26.5930000 -38.4030000
  -6.9710000 -26.5550000 -38.9100000  -5.7960000 -27.4560000 -38.5980000
  -6.2170000 -26.6980000 -38.4930000 -16.5350000 -24.4530000 -45.4630000
 -16.2750000 -23.7600000 -46.0710000 -17.4060000 -24.1940000 -45.1640000
 -16.6120000 -24.3310000 -45.5030000  -2.8460000 -26.8630000 -48.4820000
  -1.9930000 -27.2050000 -48.7520000  -2.8240000 -26.8920000 -47.5260000
  -2.7340000 -26.9110000 -48.3950000  -9.9160000 -29.9520000 -40.5770000
 -10.6700000 -30.2820000 -41.0650000 -10.1170000 -30.1500000 -39.6630000
 -10.0380000 -30.0200000 -40.5230000  -6.3660000 -30.6300000 -38.5080000
  -7.1500000 -30.6680000 -37.9600000  -5.7290000 -31.1800000 -38.0540000
  -6.3850000 -30.7050000 -38.3800000  -4.5060000 -19.8360000 -43.8300000
  -4.9790000 -19.0030000 -43.8370000  -5.0370000 -20.4170000 -44.3740000
  -4.6350000 -19.8040000 -43.9000000 -32.5190000  27.9630000  40.0680000
 -32.6730000  28.4200000  40.8950000 -31.8080000  27.3530000  40.2600000
 -32.4480000  27.9430000  40.1980000 -21.2610000  21.6260000  43.4400000
 -21.1940000  20.6790000  43.3170000 -20.3920000  21.8910000  43.7420000
 -21.1410000  21.5390000  43.4640000 -20.1420000  25.9170000  45.2820000
 -20.9210000  26.0270000  45.8270000 -19.7980000  26.8030000  45.1720000
 -20.1980000  26.0440000  45.3370000 -29.0460000  22.0450000  39.4300000
 -29.3120000  21.5820000  40.2240000 -29.0300000  21.3680000  38.7530000
 -29.0780000  21.8990000  39.4450000 -25.9350000  30.1850000  39.7320000
 -25.1650000  30.2060000  40.2990000 -25.6160000  29.8180000  38.9090000
 -25.7960000  30.1410000  39.6990000 -20.2000000  29.8220000  41.4630000
 -20.5650000  30.4630000  42.0730000 -20.9650000  29.4000000  41.0700000
 -20.3440000  29.8500000  41.4900000 -21.8750000  21.8520000  40.5670000
 -21.7420000  21.7080000  41.5050000 -22.7420000  22.2510000  40.5070000
 -21.9680000  21.8840000  40.6800000 -33.1130000  24.1690000  44.8400000
 -33.5190000  24.1680000  43.9730000 -33.5980000  24.8320000  45.3320000
 -33.2260000  24.2540000  44.7930000 -33.6860000  21.3560000  43.5580000
 -34.4430000  21.3430000  44.1430000 -33.1530000  20.6120000  43.8390000
 -33.7140000  21.2590000  43.6690000 -29.0260000  25.5550000  43.3890000
 -29.8510000  25.5370000  42.9040000 -29.2760000  25.3690000  44.2940000
 -29.1630000  25.5290000  43.4430000 -34.2010000  27.1770000  38.0590000
 -34.8030000  27.9140000  37.9640000 -33.5710000  27.4670000  38.7200000
 -34.1970000  27.3080000  38.1320000 -31.0500000  26.1300000  48.3340000
 -30.1690000  26.4220000  48.5670000 -30.9650000  25.7960000  47.4420000
 -30.9260000  26.1250000  48.2500000 -26.7530000  21.9490000  46.5180000
 -27.7050000  21.8860000  46.5890000 -26.4250000  21.2210000  47.0470000
 -26.8340000  21.8480000  46.5950000 -21.6250000  29.9570000  48.6400000
 -21.1850000  30.4640000  49.3230000 -22.2960000  29.4600000  49.1070000
 -21.6530000  29.9580000  48.7870000 -24.2740000  23.2740000  40.3820000
 -24.1700000  23.6180000  41.2690000 -24.4050000  24.0500000  39.8380000
 -24.2780000  23.4170000  40.4270000 -21.6320000  24.1220000  47.7090000
 -20.7200000  24.1330000  48.0030000 -21.6320000  23.5370000  46.9520000
 -21.5150000  24.0480000  47.6500000 -32.0450000  20.4480000  38.3690000
 -31.7030000  20.4570000  39.2630000 -32.5300000  21.2700000  38.2910000
 -32.0640000  20.5550000  38.4730000 -29.4420000  24.9590000  46.0230000
 -29.3560000  24.1750000  46.5670000 -29.0030000  25.6460000  46.5230000
 -29.3750000  24.9470000  46.1570000 -22.3460000  19.0980000  40.2380000
 -22.2180000  20.0130000  39.9860000 -23.2950000  19.0030000  40.3220000
 -22.4510000  19.2030000  40.2170000 -19.1710000  20.4360000  38.2380000
 -19.3470000  21.2770000  37.8170000 -19.9800000  19.9370000  38.1240000
 -19.2970000  20.4800000  38.1710000 -16.6020000  26.3640000  45.6170000
 -16.5880000  26.0510000  46.5220000 -16.6520000  27.3170000  45.6930000
 -16.6060000  26.4460000  45.7430000 -27.2100000  24.3000000  39.5000000
 -27.8350000  23.5760000  39.5230000 -26.9910000  24.4590000  40.4170000
 -27.2610000  24.2280000  39.6190000 -21.0370000  27.2650000  39.5000000
 -21.4940000  27.0240000  40.3070000 -20.1110000  27.1250000  39.6990000
 -20.9770000  27.2160000  39.6300000 -22.9120000  22.9820000  45.0890000
 -22.2160000  22.5960000  44.5550000 -23.5220000  22.2600000  45.2430000
 -22.9010000  22.8400000  45.0400000 -27.0110000  24.4180000  42.1630000
 -27.8350000  24.7010000  42.5590000 -26.3340000  24.8040000  42.7180000
 -27.0300000  24.5030000  42.2850000 -24.9920000  29.5190000  45.7120000
 -24.4470000  30.0200000  46.3180000 -25.6860000  30.1260000  45.4550000
 -25.0110000  29.6600000  45.7570000 -22.2880000  26.7650000  41.9040000
 -22.3320000  27.3840000  42.6350000 -22.6550000  25.9540000  42.2570000
 -22.3400000  26.7410000  42.0430000 -27.5380000  27.6290000  42.3830000
 -28.2100000  26.9480000  42.4130000 -27.4600000  27.8460000  41.4550000
 -27.6150000  27.5700000  42.2680000 -31.4880000  31.1220000  48.3300000
 -31.5280000  30.1670000  48.2930000 -31.9430000  31.3500000  49.1400000
 -31.5510000  31.0290000  48.4300000 -30.1590000  30.0580000  39.4390000
 -30.5410000  29.7490000  38.6170000 -29.9190000  30.9690000  39.2630000
 -30.1760000  30.1350000  39.3120000 -31.3310000  20.3280000  41.1200000
 -31.0860000  19.4530000  41.4220000 -31.5460000  20.8050000  41.9220000
 -31.3280000  20.2770000  41.2610000 -26.0990000  22.0770000  43.6580000
 -26.3930000  22.7920000  43.0940000 -26.3700000  22.3380000  44.5380000
 -26.1710000  22.2020000  43.6980000 -34.4930000  24.5930000  39.1540000
 -35.4180000  24.3500000  39.1920000 -34.4970000  25.5130000  38.8890000
 -34.6110000  24.6800000  39.1250000 -32.5240000  28.9460000  42.4430000
 -31.7010000  29.4320000  42.4050000 -32.4730000  28.4510000  43.2600000
 -32.4120000  28.9450000  42.5430000 -30.2300000  30.5830000  42.4450000
 -30.7530000  31.2860000  42.8320000 -30.2170000  30.7790000  41.5100000
 -30.2940000  30.6980000  42.3750000 -23.1860000  25.4500000  38.6100000
 -22.7090000  25.0970000  37.8610000 -22.6850000  26.2220000  38.8720000
 -23.0610000  25.5040000  38.5470000 -21.3340000  16.5300000  48.0080000
 -21.1890000  16.9350000  48.8630000 -22.2800000  16.5980000  47.8690000
 -21.4360000  16.5900000  48.1010000 -25.2460000  26.6650000  45.7230000
 -24.7480000  26.4580000  44.9320000 -25.0620000  27.5900000  45.8870000
 -25.1590000  26.7570000  45.6420000 -30.6210000  25.4110000  39.4640000
 -31.1030000  24.5940000  39.3320000 -30.1870000  25.5700000  38.6250000
 -30.6280000  25.3270000  39.3390000 -27.9250000  27.2610000  46.3450000
 -28.3320000  28.0210000  45.9300000 -27.0640000  27.1960000  45.9350000
 -27.8670000  27.3500000  46.2390000 -23.3880000  28.5000000  43.8270000
 -22.7150000  28.9120000  44.3680000 -24.1980000  28.9460000  44.0730000
 -23.4050000  28.6100000  43.9280000 -35.2350000  28.9910000  47.3300000
 -34.2780000  28.9750000  47.3120000 -35.4800000  28.1770000  47.7700000
 -35.1430000  28.8850000  47.3850000 -26.3920000  24.4770000  47.6800000
 -25.7660000  24.9270000  47.1130000 -26.5340000  23.6300000  47.2550000
 -26.3300000  24.4260000  47.5530000 -26.3680000  21.2220000  40.4360000
 -27.1280000  21.4700000  39.9070000 -25.8140000  22.0020000  40.4370000
 -26.3950000  21.3540000  40.3680000 -33.8330000  24.5150000  42.1530000
 -33.9230000  24.2440000  41.2390000 -34.7320000  24.6720000  42.4450000
 -33.9610000  24.5010000  42.0730000 -24.2460000  20.4060000  44.9480000
 -24.9090000  20.8120000  44.3880000 -23.5510000  20.1430000  44.3450000
 -24.2420000  20.4250000  44.8000000 -31.8870000  27.4310000  44.5530000
 -31.6990000  26.6790000  43.9900000 -31.0320000  27.8220000  44.7230000
 -31.7550000  27.3850000  44.5030000 -33.2410000  19.3010000  46.7120000
 -33.0700000  20.2220000  46.9100000 -32.6740000  18.8170000  47.3120000
 -33.1470000  19.3570000  46.8140000 -32.3870000  28.4280000  47.1050000
 -32.1300000  28.0100000  46.2820000 -32.3030000  27.7360000  47.7600000
 -32.3420000  28.2860000  47.0830000 -28.0150000  28.4050000  39.7630000
 -27.2850000  29.0250000  39.7530000 -28.7970000  28.9560000  39.7320000
 -28.0220000  28.5550000  39.7570000 -28.3830000  25.7860000  48.8800000
 -28.8320000  25.0320000  49.2620000 -27.6610000  25.4060000  48.3800000
 -28.3480000  25.6410000  48.8640000 -31.3600000  22.5230000  42.8630000
 -31.5090000  23.4660000  42.7840000 -32.1530000  22.1910000  43.2870000
 -31.4800000  22.6010000  42.9070000 -32.1050000  23.0120000  39.4570000
 -33.0220000  22.7970000  39.6230000 -31.6300000  22.6240000  40.1920000
 -32.1610000  22.9350000  39.5720000 -26.3970000  28.2000000  48.6780000
 -26.6650000  28.8430000  49.3350000 -27.1960000  28.0180000  48.1820000
 -26.5340000  28.2590000  48.6980000 -34.5400000  19.4180000  39.3850000
 -34.5390000  20.1600000  39.9890000 -34.0360000  19.7220000  38.6320000
 -34.4750000  19.5520000  39.3670000 -33.0130000  30.8320000  45.6350000
 -33.1010000  31.6120000  46.1830000 -32.9420000  30.1080000  46.2570000
 -33.0160000  30.8390000  45.7840000 -31.8300000  19.4890000  44.2700000
 -32.2350000  19.1580000  45.0730000 -31.7220000  18.7150000  43.7180000
 -31.8670000  19.3480000  44.3030000 -31.2860000  25.5350000  42.1570000
 -30.9130000  25.4700000  41.2780000 -32.1910000  25.2390000  42.0550000
 -31.3550000  25.4880000  42.0320000 -29.1410000  22.4320000  44.5410000
 -29.9930000  22.2940000  44.1300000 -29.0910000  23.3790000  44.6780000
 -29.2430000  22.5360000  44.5070000 -28.0960000  26.1030000  37.7800000
 -28.1150000  26.7530000  38.4820000 -27.7410000  25.3150000  38.1920000
 -28.0530000  26.0860000  37.9220000 -28.4230000  20.6060000  42.6320000
 -28.6480000  21.3910000  43.1320000 -27.5240000  20.7580000  42.3400000
 -28.3360000  20.7260000  42.6590000 -22.9960000  20.3260000  47.5030000
 -22.1250000  19.9330000  47.5590000 -23.0950000  20.5570000  46.5800000
 -22.8970000  20.3050000  47.3920000 -22.9710000  24.1910000  42.7500000
 -23.1920000  23.9410000  43.6480000 -22.1550000  23.7250000  42.5680000
 -22.8950000  24.0990000  42.8430000 -29.1680000  22.7410000  47.9180000
 -30.0200000  22.3100000  47.8300000 -29.0700000  22.8880000  48.8580000
 -29.2650000  22.7050000  48.0270000 -20.2800000  24.2150000  40.5870000
 -21.1030000  23.7280000  40.5380000 -20.5320000  25.0790000  40.9150000
 -20.4170000  24.2630000  40.6220000 -35.1930000  22.8960000  47.5320000
 -35.2870000  22.4290000  46.7020000 -34.3700000  22.5730000  47.8970000
 -35.1010000  22.7950000  47.4730000 -35.8360000  28.6530000  42.8170000
 -34.8800000  28.6850000  42.8430000 -36.1070000  29.5700000  42.8550000
 -35.7470000  28.7740000  42.8250000 -34.4760000  21.9430000  40.7870000
 -34.1680000  22.0080000  41.6920000 -35.3940000  21.6850000  40.8670000
 -34.5550000  21.9180000  40.9130000 -25.1670000  26.2040000  43.1720000
 -24.5470000  26.6480000  42.5930000 -25.9780000  26.7080000  43.0870000
 -25.1910000  26.3260000  43.0870000 -29.4560000  28.6670000  44.5440000
 -28.9420000  28.0670000  44.0050000 -29.7300000  29.3570000  43.9400000
 -29.4260000  28.6780000  44.3980000 -19.3990000  23.2320000  44.5890000
 -18.8170000  23.7170000  44.0030000 -19.9650000  23.9020000  44.9730000
 -19.3970000  23.3800000  44.5640000 -31.6800000  22.0510000  46.4550000
 -31.8590000  22.6410000  45.7230000 -31.1950000  21.3240000  46.0650000
 -31.6410000  22.0340000  46.3120000 -21.7070000  29.7380000  45.8180000
 -20.8530000  29.3970000  45.5480000 -21.6850000  29.7090000  46.7750000
 -21.5950000  29.6900000  45.9050000 -19.6300000  19.7640000  45.3270000
 -20.2260000  19.4140000  45.9880000 -18.9120000  19.1320000  45.2910000
 -19.6140000  19.6390000  45.4070000 -23.5600000  30.4090000  41.0330000
 -23.1650000  30.7500000  41.8350000 -23.0700000  30.8280000  40.3270000
 -23.4470000  30.5060000  41.0460000 -31.2550000  21.4360000  32.4540000
 -31.0260000  21.4080000  33.3830000 -31.8840000  20.7240000  32.3410000
 -31.3050000  21.3410000  32.5590000 -33.3390000  19.7220000  31.9600000
 -33.8990000  20.1700000  32.5940000 -33.4850000  18.7910000  32.1270000
 -33.4280000  19.6600000  32.0620000 -32.5190000  27.9630000  21.2080000
 -32.6730000  28.4200000  22.0350000 -31.8080000  27.3530000  21.4000000
 -32.4480000  27.9430000  21.3380000 -29.1250000  23.1720000  31.8130000
 -29.7280000  22.5310000  32.1880000 -28.3350000  23.1030000  32.3510000
 -29.1010000  23.0820000  31.9300000 -28.5860000  19.6090000  38.0910000
 -27.6950000  19.3800000  37.8270000 -29.1090000  19.4880000  37.2980000
 -28.5380000  19.5650000  37.9570000 -26.7010000  22.9980000  33.0820000
 -26.5230000  22.1160000  33.4070000 -26.3830000  23.5780000  33.7730000
 -26.6370000  22.9590000  33.2120000 -21.2610000  21.6260000  24.5800000
 -21.1940000  20.6790000  24.4560000 -20.3920000  21.8910000  24.8810000
 -21.1410000  21.5390000  24.6030000 -20.1420000  25.9170000  26.4210000
 -20.9210000  26.0270000  26.9660000 -19.7980000  26.8030000  26.3120000
 -20.1980000  26.0440000  26.4770000 -29.0460000  22.0450000  20.5690000
 -29.3120000  21.5820000  21.3640000 -29.0300000  21.3680000  19.8930000
 -29.0780000  21.8990000  20.5850000 -28.8110000  29.2330000  33.8530000
 -28.9400000  28.3680000  34.2420000 -28.3680000  29.0580000  33.0220000
 -28.7710000  29.1000000  33.7960000 -25.9350000  30.1850000  20.8720000
 -25.1650000  30.2060000  21.4390000 -25.6160000  29.8180000  20.0480000
 -25.7960000  30.1410000  20.8390000 -20.2000000  29.8220000  22.6020000
 -20.5650000  30.4630000  23.2120000 -20.9650000  29.4000000  22.2100000
 -20.3440000  29.8500000  22.6300000 -21.8750000  21.8520000  21.7070000
 -21.7420000  21.7080000  22.6440000 -22.7420000  22.2510000  21.6470000
 -21.9680000  21.8840000  21.8200000 -33.1130000  24.1690000  25.9800000
 -33.5190000  24.1680000  25.1130000 -33.5980000  24.8320000  26.4710000
 -33.2260000  24.2540000  25.9320000 -34.9930000  20.5650000  33.9980000
 -34.7870000  21.4630000  34.2550000 -35.3500000  20.1640000  34.7910000
 -35.0120000  20.6280000  34.1320000 -33.6860000  21.3560000  24.6980000
 -34.4430000  21.3430000  25.2830000 -33.1530000  20.6120000  24.9790000
 -33.7140000  21.2590000  24.8090000 -26.6450000  25.0540000  34.9970000
 -26.0600000  25.3670000  35.6860000 -27.3710000  25.6790000  34.9970000
 -26.6630000  25.1740000  35.0850000 -29.0260000  25.5550000  24.5290000
 -29.8510000  25.5370000  24.0440000 -29.2760000  25.3690000  25.4340000
 -29.1630000  25.5290000  24.5830000 -34.2010000  27.1770000  19.1990000
 -34.8030000  27.9140000  19.1030000 -33.5710000  27.4670000  19.8600000
 -34.1970000  27.3080000  19.2710000 -26.7530000  21.9490000  27.6580000
 -27.7050000  21.8860000  27.7290000 -26.4250000  21.2210000  28.1860000
 -26.8340000  21.8480000  27.7350000 -21.6250000  29.9570000  29.7800000
 -21.1850000  30.4640000  30.4630000 -22.2960000  29.4600000  30.2460000
 -21.6530000  29.9580000  29.9270000 -31.1050000  29.4780000  36.8440000
 -31.2620000  28.5340000  36.8080000 -31.1930000  29.7700000  35.9370000
 -31.1370000  29.3940000  36.7230000 -21.6320000  24.1220000  28.8490000
 -20.7200000  24.1330000  29.1420000 -21.6320000  23.5370000  28.0910000
 -21.5150000  24.0480000  28.7900000 -23.7870000  28.4590000  30.7000000
 -24.6620000  28.2020000  30.4100000 -23.4350000  27.6760000  31.1240000
 -23.8550000  28.3260000  30.7170000 -32.0450000  20.4480000  19.5090000
 -31.7030000  20.4570000  20.4030000 -32.5300000  21.2700000  19.4310000
 -32.0640000  20.5550000  19.6130000 -29.4420000  24.9590000  27.1630000
 -29.3560000  24.1750000  27.7060000 -29.0030000  25.6460000  27.6630000
 -29.3750000  24.9470000  27.2960000 -20.7800000  22.5770000  36.5030000
 -21.6800000  22.2490000  36.4980000 -20.4550000  22.4000000  35.6210000
 -20.8550000  22.5120000  36.3900000 -22.3460000  19.0980000  21.3770000
 -22.2180000  20.0130000  21.1250000 -23.2950000  19.0030000  21.4620000
 -22.4510000  19.2030000  21.3560000 -19.1710000  20.4360000  19.3780000
 -19.3470000  21.2770000  18.9570000 -19.9800000  19.9370000  19.2640000
 -19.2970000  20.4800000  19.3100000 -16.6020000  26.3640000  26.7560000
 -16.5880000  26.0510000  27.6610000 -16.6520000  27.3170000  26.8330000
 -16.6060000  26.4460000  26.8820000 -27.2100000  24.3000000  20.6390000
 -27.8350000  23.5760000  20.6630000 -26.9910000  24.4590000  21.5570000
 -27.2610000  24.2280000  20.7590000 -30.4710000  25.9480000  32.7600000
 -31.3160000  25.6280000  33.0760000 -29.9980000  25.1570000  32.5000000
 -30.5200000  25.8060000  32.7670000 -33.5450000  31.1340000  37.0930000
 -32.7330000  30.6460000  36.9510000 -33.8140000  31.4110000  36.2170000
 -33.4760000  31.1070000  36.9620000 -20.7440000  21.8150000  33.9340000
 -21.6100000  21.6510000  33.5630000 -20.1610000  21.2230000  33.4570000
 -20.7800000  21.7180000  33.8250000 -21.0370000  27.2650000  20.6400000
 -21.4940000  27.0240000  21.4460000 -20.1110000  27.1250000  20.8390000
 -20.9770000  27.2160000  20.7690000 -31.2820000  30.1740000  34.1210000
 -30.4030000  29.8010000  34.0690000 -31.8200000  29.5930000  33.5840000
 -31.2380000  30.0520000  34.0460000 -22.9120000  22.9820000  26.2280000
 -22.2160000  22.5960000  25.6950000 -23.5220000  22.2600000  26.3830000
 -22.9010000  22.8400000  26.1790000 -24.8380000  28.4310000  33.7700000
 -25.3950000  28.0370000  33.0980000 -25.4150000  29.0410000  34.2300000
 -24.9830000  28.4590000  33.7430000 -20.9240000  27.6920000  36.9640000
 -21.7470000  28.0320000  36.6150000 -21.0690000  27.6360000  37.9090000
 -21.0470000  27.7280000  37.0410000 -27.0110000  24.4180000  23.3030000
 -27.8350000  24.7010000  23.6990000 -26.3340000  24.8040000  23.8580000
 -27.0300000  24.5030000  23.4250000 -34.0000000  28.0090000  31.3960000
 -34.3760000  27.8820000  32.2660000 -34.5630000  27.4980000  30.8140000
 -34.1190000  27.9280000  31.4330000 -24.9920000  29.5190000  26.8510000
 -24.4470000  30.0200000  27.4580000 -25.6860000  30.1260000  26.5940000
 -25.0110000  29.6600000  26.8960000 -22.2880000  26.7650000  23.0440000
 -22.3320000  27.3840000  23.7740000 -22.6550000  25.9540000  23.3960000
 -22.3400000  26.7410000  23.1830000 -27.5380000  27.6290000  23.5230000
 -28.2100000  26.9480000  23.5530000 -27.4600000  27.8460000  22.5940000
 -27.6150000  27.5700000  23.4080000 -33.8510000  22.4820000  37.4860000
 -34.0050000  22.7620000  36.5840000 -34.0890000  23.2420000  38.0170000
 -33.9020000  22.6150000  37.4390000 -31.9180000  26.6030000  36.5920000
 -32.0340000  26.3190000  35.6850000 -32.8100000  26.7060000  36.9250000
 -32.0480000  26.5800000  36.5180000 -32.8730000  24.9300000  31.4380000
 -33.4640000  24.1910000  31.2860000 -32.2620000  24.9020000  30.7030000
 -32.8700000  24.8320000  31.3240000 -31.4880000  31.1220000  29.4700000
 -31.5280000  30.1670000  29.4330000 -31.9430000  31.3500000  30.2800000
 -31.5510000  31.0290000  29.5690000 -30.1590000  30.0580000  20.5780000
 -30.5410000  29.7490000  19.7570000 -29.9190000  30.9690000  20.4030000
 -30.1760000  30.1350000  20.4510000 -31.3310000  20.3280000  22.2600000
 -31.0860000  19.4530000  22.5610000 -31.5460000  20.8050000  23.0610000
 -31.3280000  20.2770000  22.4010000 -26.0990000  22.0770000  24.7980000
 -26.3930000  22.7920000  24.2340000 -26.3700000  22.3380000  25.6780000
 -26.1710000  22.2020000  24.8380000 -34.4930000  24.5930000  20.2940000
 -35.4180000  24.3500000  20.3320000 -34.4970000  25.5130000  20.0290000
 -34.6110000  24.6800000  20.2650000 -32.5240000  28.9460000  23.5830000
 -31.7010000  29.4320000  23.5450000 -32.4730000  28.4510000  24.4000000
 -32.4120000  28.9450000  23.6820000 -30.2300000  30.5830000  23.5850000
 -30.7530000  31.2860000  23.9710000 -30.2170000  30.7790000  22.6490000
 -30.2940000  30.6980000  23.5150000 -23.1860000  25.4500000  19.7490000
 -22.7090000  25.0970000  19.0000000 -22.6850000  26.2220000  20.0120000
 -23.0610000  25.5040000  19.6870000 -34.2920000  30.8860000  34.5790000
 -34.3300000  31.2030000  33.6780000 -35.1650000  30.5270000  34.7440000
 -34.4090000  30.8800000  34.4860000 -21.3340000  16.5300000  29.1480000
 -21.1890000  16.9350000  30.0030000 -22.2800000  16.5980000  29.0090000
 -21.4360000  16.5900000  29.2400000 -31.3590000  28.5830000  31.6330000
 -31.0340000  27.7800000  32.0400000 -32.2270000  28.3510000  31.3070000
 -31.4280000  28.4510000  31.6430000 -35.7420000  29.5170000  37.6020000
 -34.9400000  30.0270000  37.4920000 -36.1920000  29.9350000  38.3370000
 -35.6970000  29.6360000  37.6820000 -25.2460000  26.6650000  26.8620000
 -24.7480000  26.4580000  26.0710000 -25.0620000  27.5900000  27.0260000
 -25.1590000  26.7570000  26.7820000 -30.6210000  25.4110000  20.6030000
 -31.1030000  24.5940000  20.4720000 -30.1870000  25.5700000  19.7650000
 -30.6280000  25.3270000  20.4790000 -27.9250000  27.2610000  27.4850000
 -28.3320000  28.0210000  27.0690000 -27.0640000  27.1960000  27.0750000
 -27.8670000  27.3500000  27.3800000 -23.3880000  28.5000000  24.9670000
 -22.7150000  28.9120000  25.5070000 -24.1980000  28.9460000  25.2130000
 -23.4050000  28.6100000  25.0670000 -35.2350000  28.9910000  28.4700000
 -34.2780000  28.9750000  28.4510000 -35.4800000  28.1770000  28.9100000
 -35.1430000  28.8850000  28.5240000 -24.9310000  23.0010000  31.0090000
 -25.3850000  23.4430000  30.2910000 -25.4730000  23.1760000  31.7780000
 -25.0580000  23.0800000  31.0150000 -19.7660000  27.9290000  29.9530000
 -20.1550000  27.4550000  30.6890000 -20.3020000  28.7180000  29.8670000
 -19.8850000  27.9690000  30.0360000 -26.3920000  24.4770000  28.8190000
 -25.7660000  24.9270000  28.2520000 -26.5340000  23.6300000  28.3950000
 -26.3300000  24.4260000  28.6920000 -26.3680000  21.2220000  21.5750000
 -27.1280000  21.4700000  21.0470000 -25.8140000  22.0020000  21.5760000
 -26.3950000  21.3540000  21.5080000 -33.8330000  24.5150000  23.2920000
 -33.9230000  24.2440000  22.3790000 -34.7320000  24.6720000  23.5850000
 -33.9610000  24.5010000  23.2130000 -24.2460000  20.4060000  26.0880000
 -24.9090000  20.8120000  25.5280000 -23.5510000  20.1430000  25.4850000
 -24.2420000  20.4250000  25.9390000 -22.6340000  25.6380000  31.4670000
 -22.8980000  24.9860000  32.1170000 -22.4150000  25.1250000  30.6890000
 -22.6400000  25.4890000  31.4510000 -31.8870000  27.4310000  25.6920000
 -31.6990000  26.6790000  25.1300000 -31.0320000  27.8220000  25.8620000
 -31.7550000  27.3850000  25.6420000 -30.2310000  22.2910000  34.9320000
 -29.3100000  22.3670000  35.1760000 -30.6830000  22.9080000  35.5070000
 -30.1710000  22.3790000  35.0360000 -33.2410000  19.3010000  27.8510000
 -33.0700000  20.2220000  28.0500000 -32.6740000  18.8170000  28.4520000
 -33.1470000  19.3570000  27.9530000 -32.3870000  28.4280000  28.2440000
 -32.1300000  28.0100000  27.4220000 -32.3030000  27.7360000  28.9000000
 -32.3420000  28.2860000  28.2230000 -21.5800000  19.1670000  37.6670000
 -22.1210000  18.6520000  38.2660000 -22.0450000  20.0000000  37.5800000
 -21.7090000  19.2080000  37.7330000 -20.2110000  26.7180000  32.8650000
 -21.1070000  26.3930000  32.7780000 -20.3110000  27.6130000  33.1900000
 -20.3390000  26.7910000  32.8960000 -28.0150000  28.4050000  20.9030000
 -27.2850000  29.0250000  20.8920000 -28.7970000  28.9560000  20.8720000
 -28.0220000  28.5550000  20.8970000 -28.3830000  25.7860000  30.0190000
 -28.8320000  25.0320000  30.4010000 -27.6610000  25.4060000  29.5190000
 -28.3480000  25.6410000  30.0050000 -26.8480000  29.9100000  31.7310000
 -27.1250000  30.7340000  32.1330000 -25.8970000  29.8970000  31.8400000
 -26.7610000  30.0140000  31.7960000 -31.3600000  22.5230000  24.0020000
 -31.5090000  23.4660000  23.9240000 -32.1530000  22.1910000  24.4260000
 -31.4800000  22.6010000  24.0460000 -27.7100000  22.8670000  36.4210000
 -28.1750000  23.4650000  37.0050000 -27.1150000  23.4310000  35.9260000
 -27.6930000  23.0150000  36.4320000 -32.1050000  23.0120000  20.5970000
 -33.0220000  22.7970000  20.7630000 -31.6300000  22.6240000  21.3320000
 -32.1610000  22.9350000  20.7120000 -35.4630000  27.7580000  33.8680000
 -36.1420000  28.3970000  34.0880000 -35.8720000  26.9090000  34.0320000
 -35.6030000  27.7310000  33.9170000 -26.3970000  28.2000000  29.8170000
 -26.6650000  28.8430000  30.4740000 -27.1960000  28.0180000  29.3210000
 -26.5340000  28.2590000  29.8370000 -26.4200000  26.5340000  32.3800000
 -26.5840000  26.8430000  31.4880000 -27.2820000  26.2700000  32.7020000
 -26.5510000  26.5400000  32.3070000 -26.1980000  20.7550000  36.5170000
 -26.2010000  20.4650000  35.6050000 -26.8700000  21.4360000  36.5540000
 -26.2850000  20.8050000  36.4050000 -34.5400000  19.4180000  20.5250000
 -34.5390000  20.1600000  21.1290000 -34.0360000  19.7220000  19.7710000
 -34.4750000  19.5520000  20.5060000 -26.4880000  30.1970000  34.9160000
 -27.3060000  30.0410000  34.4440000 -26.4400000  31.1490000  35.0050000
 -26.5860000  30.2990000  34.8670000 -22.1380000  24.8930000  36.1460000
 -21.4250000  24.2610000  36.2420000 -21.6980000  25.7300000  36.0000000
 -21.9910000  24.9190000  36.1390000 -33.0130000  30.8320000  26.7740000
 -33.1010000  31.6120000  27.3230000 -32.9420000  30.1080000  27.3970000
 -33.0160000  30.8390000  26.9240000 -32.9120000  25.9730000  33.9580000
 -33.0030000  25.8530000  33.0130000 -33.6350000  26.5510000  34.1960000
 -33.0160000  26.0320000  33.8670000 -31.8300000  19.4890000  25.4100000
 -32.2350000  19.1580000  26.2120000 -31.7220000  18.7150000  24.8580000
 -31.8670000  19.3480000  25.4420000 -31.2860000  25.5350000  23.2960000
 -30.9130000  25.4700000  22.4170000 -32.1910000  25.2390000  23.1950000
 -31.3550000  25.4880000  23.1710000 -29.1410000  22.4320000  25.6810000
 -29.9930000  22.2940000  25.2690000 -29.0910000  23.3790000  25.8170000
 -29.2430000  22.5360000  25.6460000 -34.2690000  23.1000000  34.8720000
 -33.4780000  23.1330000  34.3350000 -34.6300000  23.9860000  34.8240000
 -34.2140000  23.2170000  34.7970000 -28.0960000  26.1030000  18.9200000
 -28.1150000  26.7530000  19.6220000 -27.7410000  25.3150000  19.3320000
 -28.0530000  26.0860000  19.0620000 -23.1130000  21.3530000  36.3410000
 -23.0520000  21.0060000  35.4510000 -24.0530000  21.4010000  36.5160000
 -23.2260000  21.3150000  36.2490000 -28.4230000  20.6060000  23.7720000
 -28.6480000  21.3910000  24.2710000 -27.5240000  20.7580000  23.4800000
 -28.3360000  20.7260000  23.7990000 -22.9960000  20.3260000  28.6420000
 -22.1250000  19.9330000  28.6990000 -23.0950000  20.5570000  27.7190000
 -22.8970000  20.3050000  28.5310000 -26.0890000  20.5930000  33.7760000
 -26.3480000  19.8170000  33.2790000 -25.1320000  20.5980000  33.7280000
 -26.0000000  20.4940000  33.7070000 -22.9710000  24.1910000  23.8900000
 -23.1920000  23.9410000  24.7880000 -22.1550000  23.7250000  23.7070000
 -22.8950000  24.0990000  23.9820000 -29.1680000  22.7410000  29.0570000
 -30.0200000  22.3100000  28.9700000 -29.0700000  22.8880000  29.9980000
 -29.2650000  22.7050000  29.1660000 -30.5370000  19.7620000  36.2080000
 -31.0900000  20.0730000  36.9240000 -30.4760000  20.5080000  35.6110000
 -30.6010000  19.8970000  36.2230000 -20.2800000  24.2150000  21.7260000
 -21.1030000  23.7280000  21.6780000 -20.5320000  25.0790000  22.0540000
 -20.4170000  24.2630000  21.7620000 -23.2230000  31.5480000  35.7450000
 -23.8630000  31.0150000  36.2170000 -23.2610000  31.2250000  34.8440000
 -23.3100000  31.4380000  35.6900000 -35.1930000  22.8960000  28.6710000
 -35.2870000  22.4290000  27.8410000 -34.3700000  22.5730000  29.0360000
 -35.1010000  22.7950000  28.6120000 -20.5560000  29.3850000  33.5620000
 -21.4470000  29.6010000  33.8400000 -20.2800000  30.1380000  33.0410000
 -20.6350000  29.5090000  33.5320000 -33.0300000  22.1540000  29.9270000
 -32.5780000  21.5750000  30.5410000 -32.4670000  22.1690000  29.1540000
 -32.9000000  22.0820000  29.9070000 -23.1300000  30.4240000  33.3460000
 -23.7390000  29.6880000  33.4020000 -23.5610000  31.0480000  32.7630000
 -23.2620000  30.4090000  33.2790000 -34.0320000  31.0120000  31.7710000
 -34.4920000  31.3560000  31.0060000 -33.9510000  30.0740000  31.5990000
 -34.0800000  30.9360000  31.6510000 -35.8360000  28.6530000  23.9560000
 -34.8800000  28.6850000  23.9830000 -36.1070000  29.5700000  23.9940000
 -35.7470000  28.7740000  23.9640000 -30.9950000  24.1120000  36.8990000
 -31.7600000  23.7150000  37.3170000 -31.2500000  25.0230000  36.7510000
 -31.1260000  24.1780000  36.9340000 -34.4760000  21.9430000  21.9270000
 -34.1680000  22.0080000  22.8310000 -35.3940000  21.6850000  22.0060000
 -34.5550000  21.9180000  22.0530000 -25.1670000  26.2040000  24.3110000
 -24.5470000  26.6480000  23.7320000 -25.9780000  26.7080000  24.2260000
 -25.1910000  26.3260000  24.2260000 -29.4560000  28.6670000  25.6840000
 -28.9420000  28.0670000  25.1440000 -29.7300000  29.3570000  25.0800000
 -29.4260000  28.6780000  25.5380000 -23.4150000  21.8960000  33.2430000
 -23.7010000  22.7220000  33.6350000 -23.6370000  21.9800000  32.3160000
 -23.4800000  22.0130000  33.1750000 -19.3990000  23.2320000  25.7290000
 -18.8170000  23.7170000  25.1430000 -19.9650000  23.9020000  26.1120000
 -19.3970000  23.3800000  25.7030000 -25.0200000  30.0080000  37.0370000
 -25.8310000  30.0460000  36.5300000 -24.6560000  29.1450000  36.8420000
 -25.0780000  29.9030000  36.9470000 -31.6800000  22.0510000  27.5950000
 -31.8590000  22.6410000  26.8630000 -31.1950000  21.3240000  27.2050000
 -31.6410000  22.0340000  27.4520000 -21.7070000  29.7380000  26.9580000
 -20.8530000  29.3970000  26.6880000 -21.6850000  29.7090000  27.9140000
 -21.5950000  29.6900000  27.0450000 -28.7760000  26.6490000  34.8630000
 -29.5300000  26.3190000  34.3740000 -28.9780000  26.4510000  35.7770000
 -28.8980000  26.5810000  34.9170000 -25.2260000  25.9720000  36.9320000
 -26.0100000  25.9330000  37.4800000 -24.5900000  25.4210000  37.3860000
 -25.2450000  25.8970000  37.0600000 -19.6300000  19.7640000  26.4660000
 -20.2260000  19.4140000  27.1280000 -18.9120000  19.1320000  26.4310000
 -19.6140000  19.6390000  26.5460000 -23.5600000  30.4090000  22.1730000
 -23.1650000  30.7500000  22.9750000 -23.0700000  30.8280000  21.4660000
 -23.4470000  30.5060000  22.1850000 -23.8320000  24.4950000  34.1350000
 -23.1380000  24.6890000  34.7670000 -24.4670000  25.2010000  34.2530000
 -23.8250000  24.6100000  34.2310000 -31.2550000  21.4360000  13.5940000
 -31.0260000  21.4080000  14.5230000 -31.8840000  20.7240000  13.4810000
 -31.3050000  21.3410000  13.6990000 -33.3390000  19.7220000  13.1000000
 -33.8990000  20.1700000  13.7340000 -33.4850000  18.7910000  13.2670000
 -33.4280000  19.6600000  13.2020000 -32.5190000  27.9630000   2.3480000
 -32.6730000  28.4200000   3.1750000 -31.8080000  27.3530000   2.5400000
 -32.4480000  27.9430000   2.4780000 -29.1250000  23.1720000  12.9530000
 -29.7280000  22.5310000  13.3280000 -28.3350000  23.1030000  13.4910000
 -29.1010000  23.0820000  13.0700000 -28.5860000  19.6090000  19.2310000
 -27.6950000  19.3800000  18.9670000 -29.1090000  19.4880000  18.4380000
 -28.5380000  19.5650000  19.0960000 -26.7010000  22.9980000  14.2210000
 -26.5230000  22.1160000  14.5470000 -26.3830000  23.5780000  14.9130000
 -26.6370000  22.9590000  14.3520000 -21.2610000  21.6260000   5.7200000
 -21.1940000  20.6790000   5.5960000 -20.3920000  21.8910000   6.0210000
 -21.1410000  21.5390000   5.7430000 -20.1420000  25.9170000   7.5610000
 -20.9210000  26.0270000   8.1060000 -19.7980000  26.8030000   7.4520000
 -20.1980000  26.0440000   7.6170000 -29.0460000  22.0450000   1.7090000
 -29.3120000  21.5820000   2.5040000 -29.0300000  21.3680000   1.0330000
 -29.0780000  21.8990000   1.7250000 -28.8110000  29.2330000  14.9930000
 -28.9400000  28.3680000  15.3820000 -28.3680000  29.0580000  14.1620000
 -28.7710000  29.1000000  14.9360000 -25.9350000  30.1850000   2.0120000
 -25.1650000  30.2060000   2.5790000 -25.6160000  29.8180000   1.1880000
 -25.7960000  30.1410000   1.9790000 -20.2000000  29.8220000   3.7420000
 -20.5650000  30.4630000   4.3520000 -20.9650000  29.4000000   3.3500000
 -20.3440000  29.8500000   3.7700000 -21.8750000  21.8520000   2.8470000
 -21.7420000  21.7080000   3.7840000 -22.7420000  22.2510000   2.7870000
 -21.9680000  21.8840000   2.9600000 -33.1130000  24.1690000   7.1200000
 -33.5190000  24.1680000   6.2530000 -33.5980000  24.8320000   7.6110000
 -33.2260000  24.2540000   7.0720000 -34.9930000  20.5650000  15.1380000
 -34.7870000  21.4630000  15.3950000 -35.3500000  20.1640000  15.9310000
 -35.0120000  20.6280000  15.2720000 -33.6860000  21.3560000   5.8380000
 -34.4430000  21.3430000   6.4230000 -33.1530000  20.6120000   6.1190000
 -33.7140000  21.2590000   5.9490000 -26.6450000  25.0540000  16.1370000
 -26.0600000  25.3670000  16.8260000 -27.3710000  25.6790000  16.1370000
 -26.6630000  25.1740000  16.2250000 -29.0260000  25.5550000   5.6690000
 -29.8510000  25.5370000   5.1840000 -29.2760000  25.3690000   6.5740000
 -29.1630000  25.5290000   5.7230000 -34.2010000  27.1770000   0.3390000
 -34.8030000  27.9140000   0.2430000 -33.5710000  27.4670000   1.0000000
 -34.1970000  27.3080000   0.4110000 -31.0500000  26.1300000  10.6140000
 -30.1690000  26.4220000  10.8460000 -30.9650000  25.7960000   9.7210000
 -30.9260000  26.1250000  10.5290000 -26.7530000  21.9490000   8.7980000
 -27.7050000  21.8860000   8.8690000 -26.4250000  21.2210000   9.3260000
 -26.8340000  21.8480000   8.8750000 -21.6250000  29.9570000  10.9200000
 -21.1850000  30.4640000  11.6030000 -22.2960000  29.4600000  11.3860000
 -21.6530000  29.9580000  11.0670000 -31.1050000  29.4780000  17.9840000
 -31.2620000  28.5340000  17.9480000 -31.1930000  29.7700000  17.0770000
 -31.1370000  29.3940000  17.8630000 -24.2740000  23.2740000   2.6620000
 -24.1700000  23.6180000   3.5490000 -24.4050000  24.0500000   2.1170000
 -24.2780000  23.4170000   2.7060000 -21.6320000  24.1220000   9.9890000
 -20.7200000  24.1330000  10.2820000 -21.6320000  23.5370000   9.2310000
 -21.5150000  24.0480000   9.9300000 -23.7870000  28.4590000  11.8400000
 -24.6620000  28.2020000  11.5500000 -23.4350000  27.6760000  12.2640000
 -23.8550000  28.3260000  11.8570000 -32.0450000  20.4480000   0.6490000
 -31.7030000  20.4570000   1.5430000 -32.5300000  21.2700000   0.5710000
 -32.0640000  20.5550000   0.7530000 -29.4420000  24.9590000   8.3030000
 -29.3560000  24.1750000   8.8460000 -29.0030000  25.6460000   8.8030000
 -29.3750000  24.9470000   8.4360000 -20.7800000  22.5770000  17.6430000
 -21.6800000  22.2490000  17.6380000 -20.4550000  22.4000000  16.7610000
 -20.8550000  22.5120000  17.5300000 -22.3460000  19.0980000   2.5170000
 -22.2180000  20.0130000   2.2650000 -23.2950000  19.0030000   2.6020000
 -22.4510000  19.2030000   2.4960000 -19.1710000  20.4360000   0.5180000
 -19.3470000  21.2770000   0.0970000 -19.9800000  19.9370000   0.4040000
 -19.2970000  20.4800000   0.4500000 -16.6020000  26.3640000   7.8960000
 -16.5880000  26.0510000   8.8010000 -16.6520000  27.3170000   7.9730000
 -16.6060000  26.4460000   8.0220000 -27.2100000  24.3000000   1.7790000
 -27.8350000  23.5760000   1.8030000 -26.9910000  24.4590000   2.6970000
 -27.2610000  24.2280000   1.8990000 -30.4710000  25.9480000  13.8990000
 -31.3160000  25.6280000  14.2160000 -29.9980000  25.1570000  13.6400000
 -30.5200000  25.8060000  13.9070000 -33.5450000  31.1340000  18.2330000
 -32.7330000  30.6460000  18.0910000 -33.8140000  31.4110000  17.3570000
 -33.4760000  31.1070000  18.1020000 -20.7440000  21.8150000  15.0740000
 -21.6100000  21.6510000  14.7030000 -20.1610000  21.2230000  14.5960000
 -20.7800000  21.7180000  14.9650000 -21.0370000  27.2650000   1.7800000
 -21.4940000  27.0240000   2.5860000 -20.1110000  27.1250000   1.9790000
 -20.9770000  27.2160000   1.9090000 -31.2820000  30.1740000  15.2610000
 -30.4030000  29.8010000  15.2090000 -31.8200000  29.5930000  14.7240000
 -31.2380000  30.0520000  15.1860000 -22.9120000  22.9820000   7.3680000
 -22.2160000  22.5960000   6.8350000 -23.5220000  22.2600000   7.5230000
 -22.9010000  22.8400000   7.3190000 -24.8380000  28.4310000  14.9100000
 -25.3950000  28.0370000  14.2380000 -25.4150000  29.0410000  15.3700000
 -24.9830000  28.4590000  14.8830000 -20.9240000  27.6920000  18.1040000
 -21.7470000  28.0320000  17.7550000 -21.0690000  27.6360000  19.0490000
 -21.0470000  27.7280000  18.1800000 -27.0110000  24.4180000   4.4430000
 -27.8350000  24.7010000   4.8390000 -26.3340000  24.8040000   4.9980000
 -27.0300000  24.5030000   4.5650000 -34.0000000  28.0090000  12.5360000
 -34.3760000  27.8820000  13.4060000 -34.5630000  27.4980000  11.9540000
 -34.1190000  27.9280000  12.5730000 -24.9920000  29.5190000   7.9910000
 -24.4470000  30.0200000   8.5980000 -25.6860000  30.1260000   7.7340000
 -25.0110000  29.6600000   8.0360000 -22.2880000  26.7650000   4.1840000
 -22.3320000  27.3840000   4.9140000 -22.6550000  25.9540000   4.5360000
 -22.3400000  26.7410000   4.3230000 -27.5380000  27.6290000   4.6630000
 -28.2100000  26.9480000   4.6930000 -27.4600000  27.8460000   3.7340000
 -27.6150000  27.5700000   4.5480000 -33.8510000  22.4820000  18.6260000
 -34.0050000  22.7620000  17.7240000 -34.0890000  23.2420000  19.1570000
 -33.9020000  22.6150000  18.5790000 -31.9180000  26.6030000  17.7320000
 -32.0340000  26.3190000  16.8250000 -32.8100000  26.7060000  18.0650000
 -32.0480000  26.5800000  17.6590000 -32.8730000  24.9300000  12.5780000
 -33.4640000  24.1910000  12.4260000 -32.2620000  24.9020000  11.8430000
 -32.8700000  24.8320000  12.4640000 -31.4880000  31.1220000  10.6100000
 -31.5280000  30.1670000  10.5730000 -31.9430000  31.3500000  11.4200000
 -31.5510000  31.0290000  10.7090000 -23.5230000  27.7750000  17.2920000
 -24.2150000  27.1350000  17.4600000 -23.7310000  28.1310000  16.4290000
 -23.6380000  27.7380000  17.2030000 -30.1590000  30.0580000   1.7180000
 -30.5410000  29.7490000   0.8970000 -29.9190000  30.9690000   1.5430000
 -30.1760000  30.1350000   1.5910000 -31.3310000  20.3280000   3.4000000
 -31.0860000  19.4530000   3.7010000 -31.5460000  20.8050000   4.2010000
 -31.3280000  20.2770000   3.5410000 -26.0990000  22.0770000   5.9380000
 -26.3930000  22.7920000   5.3740000 -26.3700000  22.3380000   6.8180000
 -26.1710000  22.2020000   5.9780000 -34.4930000  24.5930000   1.4340000
 -35.4180000  24.3500000   1.4720000 -34.4970000  25.5130000   1.1690000
 -34.6110000  24.6800000   1.4050000 -32.5240000  28.9460000   4.7230000
 -31.7010000  29.4320000   4.6850000 -32.4730000  28.4510000   5.5400000
 -32.4120000  28.9450000   4.8220000 -30.2300000  30.5830000   4.7250000
 -30.7530000  31.2860000   5.1110000 -30.2170000  30.7790000   3.7890000
 -30.2940000  30.6980000   4.6550000 -23.1860000  25.4500000   0.8890000
 -22.7090000  25.0970000   0.1400000 -22.6850000  26.2220000   1.1520000
 -23.0610000  25.5040000   0.8270000 -34.2920000  30.8860000  15.7190000
 -34.3300000  31.2030000  14.8170000 -35.1650000  30.5270000  15.8840000
 -34.4090000  30.8800000  15.6250000 -21.3340000  16.5300000  10.2880000
 -21.1890000  16.9350000  11.1430000 -22.2800000  16.5980000  10.1490000
 -21.4360000  16.5900000  10.3800000 -31.3590000  28.5830000  12.7730000
 -31.0340000  27.7800000  13.1800000 -32.2270000  28.3510000  12.4470000
 -31.4280000  28.4510000  12.7830000 -35.7420000  29.5170000  18.7420000
 -34.9400000  30.0270000  18.6320000 -36.1920000  29.9350000  19.4760000
 -35.6970000  29.6360000  18.8220000 -25.2460000  26.6650000   8.0020000
 -24.7480000  26.4580000   7.2110000 -25.0620000  27.5900000   8.1660000
 -25.1590000  26.7570000   7.9220000 -30.6210000  25.4110000   1.7430000
 -31.1030000  24.5940000   1.6120000 -30.1870000  25.5700000   0.9050000
 -30.6280000  25.3270000   1.6190000 -27.9250000  27.2610000   8.6250000
 -28.3320000  28.0210000   8.2090000 -27.0640000  27.1960000   8.2150000
 -27.8670000  27.3500000   8.5190000 -23.3880000  28.5000000   6.1070000
 -22.7150000  28.9120000   6.6470000 -24.1980000  28.9460000   6.3530000
 -23.4050000  28.6100000   6.2070000 -35.2350000  28.9910000   9.6100000
 -34.2780000  28.9750000   9.5910000 -35.4800000  28.1770000  10.0500000
 -35.1430000  28.8850000   9.6640000 -24.9310000  23.0010000  12.1490000
 -25.3850000  23.4430000  11.4310000 -25.4730000  23.1760000  12.9180000
 -25.0580000  23.0800000  12.1550000 -19.7660000  27.9290000  11.0930000
 -20.1550000  27.4550000  11.8290000 -20.3020000  28.7180000  11.0070000
 -19.8850000  27.9690000  11.1760000 -26.3920000  24.4770000   9.9590000
 -25.7660000  24.9270000   9.3920000 -26.5340000  23.6300000   9.5350000
 -26.3300000  24.4260000   9.8320000 -26.3680000  21.2220000   2.7150000
 -27.1280000  21.4700000   2.1870000 -25.8140000  22.0020000   2.7160000
 -26.3950000  21.3540000   2.6480000 -33.8330000  24.5150000   4.4320000
 -33.9230000  24.2440000   3.5190000 -34.7320000  24.6720000   4.7250000
 -33.9610000  24.5010000   4.3530000 -24.2460000  20.4060000   7.2280000
 -24.9090000  20.8120000   6.6680000 -23.5510000  20.1430000   6.6250000
 -24.2420000  20.4250000   7.0790000 -22.6340000  25.6380000  12.6070000
 -22.8980000  24.9860000  13.2570000 -22.4150000  25.1250000  11.8290000
 -22.6400000  25.4890000  12.5910000 -31.8870000  27.4310000   6.8320000
 -31.6990000  26.6790000   6.2700000 -31.0320000  27.8220000   7.0020000
 -31.7550000  27.3850000   6.7820000 -30.2310000  22.2910000  16.0720000
 -29.3100000  22.3670000  16.3160000 -30.6830000  22.9080000  16.6470000
 -30.1710000  22.3790000  16.1760000 -33.2410000  19.3010000   8.9910000
 -33.0700000  20.2220000   9.1900000 -32.6740000  18.8170000   9.5920000
 -33.1470000  19.3570000   9.0930000 -32.3870000  28.4280000   9.3840000
 -32.1300000  28.0100000   8.5620000 -32.3030000  27.7360000  10.0400000
 -32.3420000  28.2860000   9.3630000 -21.5800000  19.1670000  18.8070000
 -22.1210000  18.6520000  19.4050000 -22.0450000  20.0000000  18.7200000
 -21.7090000  19.2080000  18.8730000 -20.2110000  26.7180000  14.0050000
 -21.1070000  26.3930000  13.9180000 -20.3110000  27.6130000  14.3300000
 -20.3390000  26.7910000  14.0360000 -28.0150000  28.4050000   2.0430000
 -27.2850000  29.0250000   2.0320000 -28.7970000  28.9560000   2.0120000
 -28.0220000  28.5550000   2.0370000 -28.3830000  25.7860000  11.1590000
 -28.8320000  25.0320000  11.5410000 -27.6610000  25.4060000  10.6590000
 -28.3480000  25.6410000  11.1440000 -26.8480000  29.9100000  12.8710000
 -27.1250000  30.7340000  13.2730000 -25.8970000  29.8970000  12.9800000
 -26.7610000  30.0140000  12.9360000 -31.3600000  22.5230000   5.1420000
 -31.5090000  23.4660000   5.0640000 -32.1530000  22.1910000   5.5660000
 -31.4800000  22.6010000   5.1860000 -27.7100000  22.8670000  17.5610000
 -28.1750000  23.4650000  18.1450000 -27.1150000  23.4310000  17.0660000
 -27.6930000  23.0150000  17.5720000 -32.1050000  23.0120000   1.7370000
 -33.0220000  22.7970000   1.9030000 -31.6300000  22.6240000   2.4720000
 -32.1610000  22.9350000   1.8520000 -35.4630000  27.7580000  15.0080000
 -36.1420000  28.3970000  15.2280000 -35.8720000  26.9090000  15.1710000
 -35.6030000  27.7310000  15.0570000 -26.3970000  28.2000000  10.9570000
 -26.6650000  28.8430000  11.6140000 -27.1960000  28.0180000  10.4610000
 -26.5340000  28.2590000  10.9770000 -26.4200000  26.5340000  13.5190000
 -26.5840000  26.8430000  12.6280000 -27.2820000  26.2700000  13.8420000
 -26.5510000  26.5400000  13.4470000 -26.1980000  20.7550000  17.6570000
 -26.2010000  20.4650000  16.7450000 -26.8700000  21.4360000  17.6940000
 -26.2850000  20.8050000  17.5450000 -34.5400000  19.4180000   1.6650000
 -34.5390000  20.1600000   2.2690000 -34.0360000  19.7220000   0.9110000
 -34.4750000  19.5520000   1.6460000 -26.4880000  30.1970000  16.0550000
 -27.3060000  30.0410000  15.5840000 -26.4400000  31.1490000  16.1440000
 -26.5860000  30.2990000  16.0060000 -22.1380000  24.8930000  17.2860000
 -21.4250000  24.2610000  17.3810000 -21.6980000  25.7300000  17.1400000
 -21.9910000  24.9190000  17.2790000 -33.0130000  30.8320000   7.9140000
 -33.1010000  31.6120000   8.4630000 -32.9420000  30.1080000   8.5370000
 -33.0160000  30.8390000   8.0640000 -32.9120000  25.9730000  15.0980000
 -33.0030000  25.8530000  14.1530000 -33.6350000  26.5510000  15.3360000
 -33.0160000  26.0320000  15.0070000 -31.8300000  19.4890000   6.5500000
 -32.2350000  19.1580000   7.3520000 -31.7220000  18.7150000   5.9980000
 -31.8670000  19.3480000   6.5820000 -31.2860000  25.5350000   4.4360000
 -30.9130000  25.4700000   3.5570000 -32.1910000  25.2390000   4.3350000
 -31.3550000  25.4880000   4.3110000 -29.1410000  22.4320000   6.8210000
 -29.9930000  22.2940000   6.4090000 -29.0910000  23.3790000   6.9570000
 -29.2430000  22.5360000   6.7860000 -34.2690000  23.1000000  16.0120000
 -33.4780000  23.1330000  15.4750000 -34.6300000  23.9860000  15.9640000
 -34.2140000  23.2170000  15.9370000 -28.0960000  26.1030000   0.0600000
 -28.1150000  26.7530000   0.7620000 -27.7410000  25.3150000   0.4720000
 -28.0530000  26.0860000   0.2020000 -23.1130000  21.3530000  17.4810000
 -23.0520000  21.0060000  16.5910000 -24.0530000  21.4010000  17.6550000
 -23.2260000  21.3150000  17.3890000 -28.4230000  20.6060000   4.9120000
 -28.6480000  21.3910000   5.4110000 -27.5240000  20.7580000   4.6200000
 -28.3360000  20.7260000   4.9390000 -22.9960000  20.3260000   9.7820000
 -22.1250000  19.9330000   9.8390000 -23.0950000  20.5570000   8.8590000
 -22.8970000  20.3050000   9.6710000 -26.0890000  20.5930000  14.9160000
 -26.3480000  19.8170000  14.4190000 -25.1320000  20.5980000  14.8680000
 -26.0000000  20.4940000  14.8460000 -22.9710000  24.1910000   5.0300000
 -23.1920000  23.9410000   5.9280000 -22.1550000  23.7250000   4.8470000
 -22.8950000  24.0990000   5.1220000 -29.1680000  22.7410000  10.1970000
 -30.0200000  22.3100000  10.1100000 -29.0700000  22.8880000  11.1380000
 -29.2650000  22.7050000  10.3060000 -30.5370000  19.7620000  17.3480000
 -31.0900000  20.0730000  18.0640000 -30.4760000  20.5080000  16.7510000
 -30.6010000  19.8970000  17.3630000 -20.2800000  24.2150000   2.8660000
 -21.1030000  23.7280000   2.8180000 -20.5320000  25.0790000   3.1940000
 -20.4170000  24.2630000   2.9020000 -23.2230000  31.5480000  16.8850000
 -23.8630000  31.0150000  17.3570000 -23.2610000  31.2250000  15.9840000
 -23.3100000  31.4380000  16.8300000 -35.1930000  22.8960000   9.8110000
 -35.2870000  22.4290000   8.9810000 -34.3700000  22.5730000  10.1760000
 -35.1010000  22.7950000   9.7520000 -20.5560000  29.3850000  14.7020000
 -21.4470000  29.6010000  14.9800000 -20.2800000  30.1380000  14.1800000
 -20.6350000  29.5090000  14.6710000 -33.0300000  22.1540000  11.0670000
 -32.5780000  21.5750000  11.6810000 -32.4670000  22.1690000  10.2940000
 -32.9000000  22.0820000  11.0470000 -23.1300000  30.4240000  14.4860000
 -23.7390000  29.6880000  14.5420000 -23.5610000  31.0480000  13.9030000
 -23.2620000  30.4090000  14.4190000 -34.0320000  31.0120000  12.9110000
 -34.4920000  31.3560000  12.1460000 -33.9510000  30.0740000  12.7390000
 -34.0800000  30.9360000  12.7910000 -35.8360000  28.6530000   5.0960000
 -34.8800000  28.6850000   5.1230000 -36.1070000  29.5700000   5.1340000
 -35.7470000  28.7740000   5.1040000 -30.9950000  24.1120000  18.0400000
 -31.7600000  23.7150000  18.4570000 -31.2500000  25.0230000  17.8910000
 -31.1260000  24.1780000  18.0740000 -34.4760000  21.9430000   3.0670000
 -34.1680000  22.0080000   3.9710000 -35.3940000  21.6850000   3.1460000
 -34.5550000  21.9180000   3.1930000 -25.1670000  26.2040000   5.4510000
 -24.5470000  26.6480000   4.8720000 -25.9780000  26.7080000   5.3660000
 -25.1910000  26.3260000   5.3660000 -29.4560000  28.6670000   6.8240000
 -28.9420000  28.0670000   6.2840000 -29.7300000  29.3570000   6.2200000
 -29.4260000  28.6780000   6.6780000 -23.4150000  21.8960000  14.3830000
 -23.7010000  22.7220000  14.7740000 -23.6370000  21.9800000  13.4560000
 -23.4800000  22.0130000  14.3150000 -19.3990000  23.2320000   6.8690000
 -18.8170000  23.7170000   6.2830000 -19.9650000  23.9020000   7.2520000
 -19.3970000  23.3800000   6.8430000 -25.0200000  30.0080000  18.1770000
 -25.8310000  30.0460000  17.6700000 -24.6560000  29.1450000  17.9820000
 -25.0780000  29.9030000  18.0870000 -31.6800000  22.0510000   8.7350000
 -31.8590000  22.6410000   8.0030000 -31.1950000  21.3240000   8.3450000
 -31.6410000  22.0340000   8.5920000 -21.7070000  29.7380000   8.0980000
 -20.8530000  29.3970000   7.8280000 -21.6850000  29.7090000   9.0540000
 -21.5950000  29.6900000   8.1850000 -28.7760000  26.6490000  16.0030000
 -29.5300000  26.3190000  15.5140000 -28.9780000  26.4510000  16.9170000
 -28.8980000  26.5810000  16.0570000 -25.2260000  25.9720000  18.0720000
 -26.0100000  25.9330000  18.6200000 -24.5900000  25.4210000  18.5260000
 -25.2450000  25.8970000  18.2000000 -19.6300000  19.7640000   7.6060000
 -20.2260000  19.4140000   8.2680000 -18.9120000  19.1320000   7.5710000
 -19.6140000  19.6390000   7.6860000 -23.5600000  30.4090000   3.3130000
 -23.1650000  30.7500000   4.1150000 -23.0700000  30.8280000   2.6060000
 -23.4470000  30.5060000   3.3250000 -23.8320000  24.4950000  15.2750000
 -23.1380000  24.6890000  15.9070000 -24.4670000  25.2010000  15.3930000
 -23.8250000  24.6100000  15.3710000 -31.2550000  21.4360000  -5.2660000
 -31.0260000  21.4080000  -4.3370000 -31.8840000  20.7240000  -5.3790000
 -31.3050000  21.3410000  -5.1610000 -33.3390000  19.7220000  -5.7600000
 -33.8990000  20.1700000  -5.1260000 -33.4850000  18.7910000  -5.5930000
 -33.4280000  19.6600000  -5.6580000 -32.5190000  27.9630000 -16.5120000
 -32.6730000  28.4200000 -15.6850000 -31.8080000  27.3530000 -16.3200000
 -32.4480000  27.9430000 -16.3820000 -29.1250000  23.1720000  -5.9070000
 -29.7280000  22.5310000  -5.5320000 -28.3350000  23.1030000  -5.3690000
 -29.1010000  23.0820000  -5.7900000 -28.5860000  19.6090000   0.3710000
 -27.6950000  19.3800000   0.1070000 -29.1090000  19.4880000  -0.4220000
 -28.5380000  19.5650000   0.2360000 -26.7010000  22.9980000  -4.6390000
 -26.5230000  22.1160000  -4.3130000 -26.3830000  23.5780000  -3.9470000
 -26.6370000  22.9590000  -4.5080000 -21.2610000  21.6260000 -13.1400000
 -21.1940000  20.6790000 -13.2640000 -20.3920000  21.8910000 -12.8390000
 -21.1410000  21.5390000 -13.1170000 -20.1420000  25.9170000 -11.2990000
 -20.9210000  26.0270000 -10.7540000 -19.7980000  26.8030000 -11.4080000
 -20.1980000  26.0440000 -11.2430000 -29.0460000  22.0450000 -17.1510000
 -29.3120000  21.5820000 -16.3560000 -29.0300000  21.3680000 -17.8270000
 -29.0780000  21.8990000 -17.1350000 -28.8110000  29.2330000  -3.8670000
 -28.9400000  28.3680000  -3.4780000 -28.3680000  29.0580000  -4.6980000
 -28.7710000  29.1000000  -3.9240000 -25.9350000  30.1850000 -16.8480000
 -25.1650000  30.2060000 -16.2810000 -25.6160000  29.8180000 -17.6720000
 -25.7960000  30.1410000 -16.8810000 -20.2000000  29.8220000 -15.1180000
 -20.5650000  30.4630000 -14.5080000 -20.9650000  29.4000000 -15.5100000
 -20.3440000  29.8500000 -15.0900000 -21.8750000  21.8520000 -16.0130000
 -21.7420000  21.7080000 -15.0760000 -22.7420000  22.2510000 -16.0730000
 -21.9680000  21.8840000 -15.9000000 -33.1130000  24.1690000 -11.7400000
 -33.5190000  24.1680000 -12.6070000 -33.5980000  24.8320000 -11.2490000
 -33.2260000  24.2540000 -11.7880000 -34.9930000  20.5650000  -3.7220000
 -34.7870000  21.4630000  -3.4650000 -35.3500000  20.1640000  -2.9290000
 -35.0120000  20.6280000  -3.5880000 -33.6860000  21.3560000 -13.0220000
 -34.4430000  21.3430000 -12.4370000 -33.1530000  20.6120000 -12.7410000
 -33.7140000  21.2590000 -12.9110000 -26.6450000  25.0540000  -2.7230000
 -26.0600000  25.3670000  -2.0340000 -27.3710000  25.6790000  -2.7230000
 -26.6630000  25.1740000  -2.6350000 -29.0260000  25.5550000 -13.1910000
 -29.8510000  25.5370000 -13.6760000 -29.2760000  25.3690000 -12.2860000
 -29.1630000  25.5290000 -13.1370000 -34.2010000  27.1770000 -18.5210000
 -34.8030000  27.9140000 -18.6170000 -33.5710000  27.4670000 -17.8600000
 -34.1970000  27.3080000 -18.4490000 -31.0500000  26.1300000  -8.2460000
 -30.1690000  26.4220000  -8.0140000 -30.9650000  25.7960000  -9.1390000
 -30.9260000  26.1250000  -8.3310000 -26.7530000  21.9490000 -10.0620000
 -27.7050000  21.8860000  -9.9910000 -26.4250000  21.2210000  -9.5340000
 -26.8340000  21.8480000  -9.9850000 -21.6250000  29.9570000  -7.9400000
 -21.1850000  30.4640000  -7.2570000 -22.2960000  29.4600000  -7.4740000
 -21.6530000  29.9580000  -7.7930000 -31.1050000  29.4780000  -0.8760000
 -31.2620000  28.5340000  -0.9120000 -31.1930000  29.7700000  -1.7830000
 -31.1370000  29.3940000  -0.9970000 -24.2740000  23.2740000 -16.1980000
 -24.1700000  23.6180000 -15.3110000 -24.4050000  24.0500000 -16.7430000
 -24.2780000  23.4170000 -16.1540000 -21.6320000  24.1220000  -8.8710000
 -20.7200000  24.1330000  -8.5780000 -21.6320000  23.5370000  -9.6290000
 -21.5150000  24.0480000  -8.9300000 -23.7870000  28.4590000  -7.0200000
 -24.6620000  28.2020000  -7.3100000 -23.4350000  27.6760000  -6.5960000
 -23.8550000  28.3260000  -7.0030000 -32.0450000  20.4480000 -18.2110000
 -31.7030000  20.4570000 -17.3170000 -32.5300000  21.2700000 -18.2890000
 -32.0640000  20.5550000 -18.1070000 -29.4420000  24.9590000 -10.5570000
 -29.3560000  24.1750000 -10.0140000 -29.0030000  25.6460000 -10.0570000
 -29.3750000  24.9470000 -10.4240000 -20.7800000  22.5770000  -1.2170000
 -21.6800000  22.2490000  -1.2220000 -20.4550000  22.4000000  -2.0990000
 -20.8550000  22.5120000  -1.3300000 -22.3460000  19.0980000 -16.3430000
 -22.2180000  20.0130000 -16.5950000 -23.2950000  19.0030000 -16.2580000
 -22.4510000  19.2030000 -16.3640000 -19.1710000  20.4360000 -18.3420000
 -19.3470000  21.2770000 -18.7630000 -19.9800000  19.9370000 -18.4560000
 -19.2970000  20.4800000 -18.4100000 -16.6020000  26.3640000 -10.9640000
 -16.5880000  26.0510000 -10.0590000 -16.6520000  27.3170000 -10.8870000
 -16.6060000  26.4460000 -10.8380000 -27.2100000  24.3000000 -17.0810000
 -27.8350000  23.5760000 -17.0570000 -26.9910000  24.4590000 -16.1630000
 -27.2610000  24.2280000 -16.9610000 -30.4710000  25.9480000  -4.9610000
 -31.3160000  25.6280000  -4.6440000 -29.9980000  25.1570000  -5.2200000
 -30.5200000  25.8060000  -4.9530000 -33.5450000  31.1340000  -0.6270000
 -32.7330000  30.6460000  -0.7690000 -33.8140000  31.4110000  -1.5030000
 -33.4760000  31.1070000  -0.7580000 -20.7440000  21.8150000  -3.7860000
 -21.6100000  21.6510000  -4.1570000 -20.1610000  21.2230000  -4.2640000
 -20.7800000  21.7180000  -3.8950000 -21.0370000  27.2650000 -17.0800000
 -21.4940000  27.0240000 -16.2740000 -20.1110000  27.1250000 -16.8810000
 -20.9770000  27.2160000 -16.9510000 -31.2820000  30.1740000  -3.5990000
 -30.4030000  29.8010000  -3.6510000 -31.8200000  29.5930000  -4.1360000
 -31.2380000  30.0520000  -3.6740000 -22.9120000  22.9820000 -11.4920000
 -22.2160000  22.5960000 -12.0250000 -23.5220000  22.2600000 -11.3370000
 -22.9010000  22.8400000 -11.5410000 -24.8380000  28.4310000  -3.9500000
 -25.3950000  28.0370000  -4.6220000 -25.4150000  29.0410000  -3.4900000
 -24.9830000  28.4590000  -3.9770000 -20.9240000  27.6920000  -0.7560000
 -21.7470000  28.0320000  -1.1050000 -21.0690000  27.6360000   0.1890000
 -21.0470000  27.7280000  -0.6800000 -27.0110000  24.4180000 -14.4170000
 -27.8350000  24.7010000 -14.0210000 -26.3340000  24.8040000 -13.8620000
 -27.0300000  24.5030000 -14.2950000 -34.0000000  28.0090000  -6.3240000
 -34.3760000  27.8820000  -5.4540000 -34.5630000  27.4980000  -6.9060000
 -34.1190000  27.9280000  -6.2870000 -24.9920000  29.5190000 -10.8690000
 -24.4470000  30.0200000 -10.2620000 -25.6860000  30.1260000 -11.1260000
 -25.0110000  29.6600000 -10.8240000 -22.2880000  26.7650000 -14.6760000
 -22.3320000  27.3840000 -13.9460000 -22.6550000  25.9540000 -14.3240000
 -22.3400000  26.7410000 -14.5370000 -27.5380000  27.6290000 -14.1970000
 -28.2100000  26.9480000 -14.1670000 -27.4600000  27.8460000 -15.1260000
 -27.6150000  27.5700000 -14.3120000 -33.8510000  22.4820000  -0.2340000
 -34.0050000  22.7620000  -1.1360000 -34.0890000  23.2420000   0.2970000
 -33.9020000  22.6150000  -0.2810000 -31.9180000  26.6030000  -1.1280000
 -32.0340000  26.3190000  -2.0350000 -32.8100000  26.7060000  -0.7950000
 -32.0480000  26.5800000  -1.2020000 -32.8730000  24.9300000  -6.2820000
 -33.4640000  24.1910000  -6.4340000 -32.2620000  24.9020000  -7.0170000
 -32.8700000  24.8320000  -6.3960000 -31.4880000  31.1220000  -8.2500000
 -31.5280000  30.1670000  -8.2870000 -31.9430000  31.3500000  -7.4400000
 -31.5510000  31.0290000  -8.1510000 -23.5230000  27.7750000  -1.5680000
 -24.2150000  27.1350000  -1.4000000 -23.7310000  28.1310000  -2.4310000
 -23.6380000  27.7380000  -1.6570000 -30.1590000  30.0580000 -17.1420000
 -30.5410000  29.7490000 -17.9630000 -29.9190000  30.9690000 -17.3170000
 -30.1760000  30.1350000 -17.2690000 -31.3310000  20.3280000 -15.4600000
 -31.0860000  19.4530000 -15.1590000 -31.5460000  20.8050000 -14.6590000
 -31.3280000  20.2770000 -15.3190000 -26.0990000  22.0770000 -12.9220000
 -26.3930000  22.7920000 -13.4860000 -26.3700000  22.3380000 -12.0420000
 -26.1710000  22.2020000 -12.8820000 -34.4930000  24.5930000 -17.4260000
 -35.4180000  24.3500000 -17.3880000 -34.4970000  25.5130000 -17.6910000
 -34.6110000  24.6800000 -17.4550000 -32.5240000  28.9460000 -14.1370000
 -31.7010000  29.4320000 -14.1750000 -32.4730000  28.4510000 -13.3200000
 -32.4120000  28.9450000 -14.0380000 -30.2300000  30.5830000 -14.1350000
 -30.7530000  31.2860000 -13.7490000 -30.2170000  30.7790000 -15.0710000
 -30.2940000  30.6980000 -14.2050000 -23.1860000  25.4500000 -17.9710000
 -22.7090000  25.0970000 -18.7200000 -22.6850000  26.2220000 -17.7080000
 -23.0610000  25.5040000 -18.0330000 -34.2920000  30.8860000  -3.1410000
 -34.3300000  31.2030000  -4.0430000 -35.1650000  30.5270000  -2.9760000
 -34.4090000  30.8800000  -3.2350000 -21.3340000  16.5300000  -8.5720000
 -21.1890000  16.9350000  -7.7170000 -22.2800000  16.5980000  -8.7110000
 -21.4360000  16.5900000  -8.4800000 -31.3590000  28.5830000  -6.0870000
 -31.0340000  27.7800000  -5.6800000 -32.2270000  28.3510000  -6.4130000
 -31.4280000  28.4510000  -6.0770000 -35.7420000  29.5170000  -0.1180000
 -34.9400000  30.0270000  -0.2280000 -36.1920000  29.9350000   0.6160000
 -35.6970000  29.6360000  -0.0380000 -25.2460000  26.6650000 -10.8580000
 -24.7480000  26.4580000 -11.6490000 -25.0620000  27.5900000 -10.6940000
 -25.1590000  26.7570000 -10.9380000 -30.6210000  25.4110000 -17.1170000
 -31.1030000  24.5940000 -17.2480000 -30.1870000  25.5700000 -17.9550000
 -30.6280000  25.3270000 -17.2410000 -27.9250000  27.2610000 -10.2350000
 -28.3320000  28.0210000 -10.6510000 -27.0640000  27.1960000 -10.6450000
 -27.8670000  27.3500000 -10.3410000 -23.3880000  28.5000000 -12.7530000
 -22.7150000  28.9120000 -12.2130000 -24.1980000  28.9460000 -12.5070000
 -23.4050000  28.6100000 -12.6530000 -35.2350000  28.9910000  -9.2500000
 -34.2780000  28.9750000  -9.2690000 -35.4800000  28.1770000  -8.8100000
 -35.1430000  28.8850000  -9.1960000 -24.9310000  23.0010000  -6.7110000
 -25.3850000  23.4430000  -7.4290000 -25.4730000  23.1760000  -5.9420000
 -25.0580000  23.0800000  -6.7050000 -19.7660000  27.9290000  -7.7670000
 -20.1550000  27.4550000  -7.0310000 -20.3020000  28.7180000  -7.8530000
 -19.8850000  27.9690000  -7.6840000 -26.3920000  24.4770000  -8.9010000
 -25.7660000  24.9270000  -9.4680000 -26.5340000  23.6300000  -9.3250000
 -26.3300000  24.4260000  -9.0280000 -26.3680000  21.2220000 -16.1450000
 -27.1280000  21.4700000 -16.6730000 -25.8140000  22.0020000 -16.1440000
 -26.3950000  21.3540000 -16.2120000 -33.8330000  24.5150000 -14.4280000
 -33.9230000  24.2440000 -15.3410000 -34.7320000  24.6720000 -14.1350000
 -33.9610000  24.5010000 -14.5070000 -24.2460000  20.4060000 -11.6320000
 -24.9090000  20.8120000 -12.1920000 -23.5510000  20.1430000 -12.2350000
 -24.2420000  20.4250000 -11.7810000 -22.6340000  25.6380000  -6.2530000
 -22.8980000  24.9860000  -5.6030000 -22.4150000  25.1250000  -7.0310000
 -22.6400000  25.4890000  -6.2690000 -31.8870000  27.4310000 -12.0280000
 -31.6990000  26.6790000 -12.5900000 -31.0320000  27.8220000 -11.8580000
 -31.7550000  27.3850000 -12.0780000 -30.2310000  22.2910000  -2.7880000
 -29.3100000  22.3670000  -2.5440000 -30.6830000  22.9080000  -2.2130000
 -30.1710000  22.3790000  -2.6840000 -33.2410000  19.3010000  -9.8690000
 -33.0700000  20.2220000  -9.6700000 -32.6740000  18.8170000  -9.2680000
 -33.1470000  19.3570000  -9.7670000 -32.3870000  28.4280000  -9.4760000
 -32.1300000  28.0100000 -10.2980000 -32.3030000  27.7360000  -8.8200000
 -32.3420000  28.2860000  -9.4970000 -21.5800000  19.1670000  -0.0530000
 -22.1210000  18.6520000   0.5450000 -22.0450000  20.0000000  -0.1400000
 -21.7090000  19.2080000   0.0130000 -20.2110000  26.7180000  -4.8550000
 -21.1070000  26.3930000  -4.9420000 -20.3110000  27.6130000  -4.5300000
 -20.3390000  26.7910000  -4.8240000 -28.0150000  28.4050000 -16.8170000
 -27.2850000  29.0250000 -16.8280000 -28.7970000  28.9560000 -16.8480000
 -28.0220000  28.5550000 -16.8230000 -28.3830000  25.7860000  -7.7010000
 -28.8320000  25.0320000  -7.3190000 -27.6610000  25.4060000  -8.2010000
 -28.3480000  25.6410000  -7.7160000 -26.8480000  29.9100000  -5.9890000
 -27.1250000  30.7340000  -5.5870000 -25.8970000  29.8970000  -5.8800000
 -26.7610000  30.0140000  -5.9240000 -31.3600000  22.5230000 -13.7180000
 -31.5090000  23.4660000 -13.7960000 -32.1530000  22.1910000 -13.2940000
 -31.4800000  22.6010000 -13.6740000 -27.7100000  22.8670000  -1.2990000
 -28.1750000  23.4650000  -0.7150000 -27.1150000  23.4310000  -1.7940000
 -27.6930000  23.0150000  -1.2880000 -32.1050000  23.0120000 -17.1230000
 -33.0220000  22.7970000 -16.9570000 -31.6300000  22.6240000 -16.3880000
 -32.1610000  22.9350000 -17.0080000 -35.4630000  27.7580000  -3.8520000
 -36.1420000  28.3970000  -3.6320000 -35.8720000  26.9090000  -3.6890000
 -35.6030000  27.7310000  -3.8030000 -26.3970000  28.2000000  -7.9030000
 -26.6650000  28.8430000  -7.2460000 -27.1960000  28.0180000  -8.3990000
 -26.5340000  28.2590000  -7.8830000 -26.4200000  26.5340000  -5.3410000
 -26.5840000  26.8430000  -6.2320000 -27.2820000  26.2700000  -5.0180000
 -26.5510000  26.5400000  -5.4130000 -26.1980000  20.7550000  -1.2030000
 -26.2010000  20.4650000  -2.1150000 -26.8700000  21.4360000  -1.1660000
 -26.2850000  20.8050000  -1.3150000 -34.5400000  19.4180000 -17.1950000
 -34.5390000  20.1600000 -16.5910000 -34.0360000  19.7220000 -17.9490000
 -34.4750000  19.5520000 -17.2140000 -26.4880000  30.1970000  -2.8050000
 -27.3060000  30.0410000  -3.2760000 -26.4400000  31.1490000  -2.7160000
 -26.5860000  30.2990000  -2.8540000 -22.1380000  24.8930000  -1.5740000
 -21.4250000  24.2610000  -1.4790000 -21.6980000  25.7300000  -1.7200000
 -21.9910000  24.9190000  -1.5810000 -33.0130000  30.8320000 -10.9460000
 -33.1010000  31.6120000 -10.3970000 -32.9420000  30.1080000 -10.3230000
 -33.0160000  30.8390000 -10.7960000 -32.9120000  25.9730000  -3.7620000
 -33.0030000  25.8530000  -4.7070000 -33.6350000  26.5510000  -3.5240000
 -33.0160000  26.0320000  -3.8530000 -31.8300000  19.4890000 -12.3100000
 -32.2350000  19.1580000 -11.5080000 -31.7220000  18.7150000 -12.8620000
 -31.8670000  19.3480000 -12.2780000 -31.2860000  25.5350000 -14.4240000
 -30.9130000  25.4700000 -15.3030000 -32.1910000  25.2390000 -14.5250000
 -31.3550000  25.4880000 -14.5490000 -29.1410000  22.4320000 -12.0390000
 -29.9930000  22.2940000 -12.4510000 -29.0910000  23.3790000 -11.9030000
 -29.2430000  22.5360000 -12.0740000 -34.2690000  23.1000000  -2.8480000
 -33.4780000  23.1330000  -3.3850000 -34.6300000  23.9860000  -2.8960000
 -34.2140000  23.2170000  -2.9230000 -28.0960000  26.1030000 -18.8000000
 -28.1150000  26.7530000 -18.0980000 -27.7410000  25.3150000 -18.3880000
 -28.0530000  26.0860000 -18.6580000 -23.1130000  21.3530000  -1.3790000
 -23.0520000  21.0060000  -2.2690000 -24.0530000  21.4010000  -1.2050000
 -23.2260000  21.3150000  -1.4710000 -28.4230000  20.6060000 -13.9480000
 -28.6480000  21.3910000 -13.4490000 -27.5240000  20.7580000 -14.2400000
 -28.3360000  20.7260000 -13.9210000 -22.9960000  20.3260000  -9.0780000
 -22.1250000  19.9330000  -9.0210000 -23.0950000  20.5570000 -10.0010000
 -22.8970000  20.3050000  -9.1890000 -26.0890000  20.5930000  -3.9440000
 -26.3480000  19.8170000  -4.4410000 -25.1320000  20.5980000  -3.9920000
 -26.0000000  20.4940000  -4.0140000 -22.9710000  24.1910000 -13.8300000
 -23.1920000  23.9410000 -12.9320000 -22.1550000  23.7250000 -14.0130000
 -22.8950000  24.0990000 -13.7380000 -29.1680000  22.7410000  -8.6630000
 -30.0200000  22.3100000  -8.7500000 -29.0700000  22.8880000  -7.7220000
 -29.2650000  22.7050000  -8.5540000 -30.5370000  19.7620000  -1.5120000
 -31.0900000  20.0730000  -0.7960000 -30.4760000  20.5080000  -2.1090000
 -30.6010000  19.8970000  -1.4970000 -20.2800000  24.2150000 -15.9940000
 -21.1030000  23.7280000 -16.0420000 -20.5320000  25.0790000 -15.6660000
 -20.4170000  24.2630000 -15.9580000 -23.2230000  31.5480000  -1.9750000
 -23.8630000  31.0150000  -1.5030000 -23.2610000  31.2250000  -2.8760000
 -23.3100000  31.4380000  -2.0300000 -35.1930000  22.8960000  -9.0490000
 -35.2870000  22.4290000  -9.8790000 -34.3700000  22.5730000  -8.6840000
 -35.1010000  22.7950000  -9.1080000 -20.5560000  29.3850000  -4.1580000
 -21.4470000  29.6010000  -3.8800000 -20.2800000  30.1380000  -4.6800000
 -20.6350000  29.5090000  -4.1890000 -33.0300000  22.1540000  -7.7930000
 -32.5780000  21.5750000  -7.1790000 -32.4670000  22.1690000  -8.5660000
 -32.9000000  22.0820000  -7.8130000 -23.1300000  30.4240000  -4.3740000
 -23.7390000  29.6880000  -4.3180000 -23.5610000  31.0480000  -4.9570000
 -23.2620000  30.4090000  -4.4410000 -34.0320000  31.0120000  -5.9490000
 -34.4920000  31.3560000  -6.7140000 -33.9510000  30.0740000  -6.1210000
 -34.0800000  30.9360000  -6.0690000 -35.8360000  28.6530000 -13.7640000
 -34.8800000  28.6850000 -13.7370000 -36.1070000  29.5700000 -13.7260000
 -35.7470000  28.7740000 -13.7560000 -30.9950000  24.1120000  -0.8210000
 -31.7600000  23.7150000  -0.4030000 -31.2500000  25.0230000  -0.9690000
 -31.1260000  24.1780000  -0.7860000 -34.4760000  21.9430000 -15.7930000
 -34.1680000  22.0080000 -14.8890000 -35.3940000  21.6850000 -15.7140000
 -34.5550000  21.9180000 -15.6670000 -25.1670000  26.2040000 -13.4090000
 -24.5470000  26.6480000 -13.9880000 -25.9780000  26.7080000 -13.4940000
 -25.1910000  26.3260000 -13.4940000 -29.4560000  28.6670000 -12.0360000
 -28.9420000  28.0670000 -12.5760000 -29.7300000  29.3570000 -12.6400000
 -29.4260000  28.6780000 -12.1820000 -23.4150000  21.8960000  -4.4770000
 -23.7010000  22.7220000  -4.0860000 -23.6370000  21.9800000  -5.4040000
 -23.4800000  22.0130000  -4.5450000 -19.3990000  23.2320000 -11.9910000
 -18.8170000  23.7170000 -12.5770000 -19.9650000  23.9020000 -11.6080000
 -19.3970000  23.3800000 -12.0170000 -25.0200000  30.0080000  -0.6830000
 -25.8310000  30.0460000  -1.1900000 -24.6560000  29.1450000  -0.8780000
 -25.0780000  29.9030000  -0.7730000 -31.6800000  22.0510000 -10.1250000
 -31.8590000  22.6410000 -10.8570000 -31.1950000  21.3240000 -10.5150000
 -31.6410000  22.0340000 -10.2680000 -21.7070000  29.7380000 -10.7620000
 -20.8530000  29.3970000 -11.0320000 -21.6850000  29.7090000  -9.8060000
 -21.5950000  29.6900000 -10.6750000 -28.7760000  26.6490000  -2.8570000
 -29.5300000  26.3190000  -3.3460000 -28.9780000  26.4510000  -1.9430000
 -28.8980000  26.5810000  -2.8030000 -25.2260000  25.9720000  -0.7880000
 -26.0100000  25.9330000  -0.2400000 -24.5900000  25.4210000  -0.3340000
 -25.2450000  25.8970000  -0.6600000 -19.6300000  19.7640000 -11.2540000
 -20.2260000  19.4140000 -10.5920000 -18.9120000  19.1320000 -11.2890000
 -19.6140000  19.6390000 -11.1740000 -23.5600000  30.4090000 -15.5470000
 -23.1650000  30.7500000 -14.7450000 -23.0700000  30.8280000 -16.2540000
 -23.4470000  30.5060000 -15.5350000 -23.8320000  24.4950000  -3.5850000
 -23.1380000  24.6890000  -2.9530000 -24.4670000  25.2010000  -3.4670000
 -23.8250000  24.6100000  -3.4890000 -31.2550000  21.4360000 -24.1260000
 -31.0260000  21.4080000 -23.1970000 -31.8840000  20.7240000 -24.2390000
 -31.3050000  21.3410000 -24.0210000 -33.3390000  19.7220000 -24.6200000
 -33.8990000  20.1700000 -23.9860000 -33.4850000  18.7910000 -24.4530000
 -33.4280000  19.6600000 -24.5180000 -32.5190000  27.9630000 -35.3720000
 -32.6730000  28.4200000 -34.5450000 -31.8080000  27.3530000 -35.1800000
 -32.4480000  27.9430000 -35.2420000 -29.1250000  23.1720000 -24.7670000
 -29.7280000  22.5310000 -24.3920000 -28.3350000  23.1030000 -24.2290000
 -29.1010000  23.0820000 -24.6500000 -28.5860000  19.6090000 -18.4890000
 -27.6950000  19.3800000 -18.7530000 -29.1090000  19.4880000 -19.2820000
 -28.5380000  19.5650000 -18.6240000 -26.7010000  22.9980000 -23.4990000
 -26.5230000  22.1160000 -23.1730000 -26.3830000  23.5780000 -22.8070000
 -26.6370000  22.9590000 -23.3680000 -21.2610000  21.6260000 -32.0000000
 -21.1940000  20.6790000 -32.1240000 -20.3920000  21.8910000 -31.6990000
 -21.1410000  21.5390000 -31.9770000 -20.1420000  25.9170000 -30.1590000
 -20.9210000  26.0270000 -29.6140000 -19.7980000  26.8030000 -30.2680000
 -20.1980000  26.0440000 -30.1030000 -29.0460000  22.0450000 -36.0110000
 -29.3120000  21.5820000 -35.2160000 -29.0300000  21.3680000 -36.6870000
 -29.0780000  21.8990000 -35.9950000 -28.8110000  29.2330000 -22.7270000
 -28.9400000  28.3680000 -22.3380000 -28.3680000  29.0580000 -23.5580000
 -28.7710000  29.1000000 -22.7840000 -25.9350000  30.1850000 -35.7080000
 -25.1650000  30.2060000 -35.1410000 -25.6160000  29.8180000 -36.5320000
 -25.7960000  30.1410000 -35.7410000 -20.2000000  29.8220000 -33.9780000
 -20.5650000  30.4630000 -33.3680000 -20.9650000  29.4000000 -34.3700000
 -20.3440000  29.8500000 -33.9500000 -21.8750000  21.8520000 -34.8730000
 -21.7420000  21.7080000 -33.9360000 -22.7420000  22.2510000 -34.9330000
 -21.9680000  21.8840000 -34.7600000 -33.1130000  24.1690000 -30.6000000
 -33.5190000  24.1680000 -31.4670000 -33.5980000  24.8320000 -30.1090000
 -33.2260000  24.2540000 -30.6480000 -34.9930000  20.5650000 -22.5820000
 -34.7870000  21.4630000 -22.3250000 -35.3500000  20.1640000 -21.7890000
 -35.0120000  20.6280000 -22.4480000 -33.6860000  21.3560000 -31.8820000
 -34.4430000  21.3430000 -31.2970000 -33.1530000  20.6120000 -31.6010000
 -33.7140000  21.2590000 -31.7710000 -26.6450000  25.0540000 -21.5830000
 -26.0600000  25.3670000 -20.8940000 -27.3710000  25.6790000 -21.5830000
 -26.6630000  25.1740000 -21.4950000 -29.0260000  25.5550000 -32.0510000
 -29.8510000  25.5370000 -32.5360000 -29.2760000  25.3690000 -31.1460000
 -29.1630000  25.5290000 -31.9970000 -34.2010000  27.1770000 -37.3810000
 -34.8030000  27.9140000 -37.4770000 -33.5710000  27.4670000 -36.7200000
 -34.1970000  27.3080000 -37.3090000 -31.0500000  26.1300000 -27.1060000
 -30.1690000  26.4220000 -26.8740000 -30.9650000  25.7960000 -27.9990000
 -30.9260000  26.1250000 -27.1910000 -26.7530000  21.9490000 -28.9220000
 -27.7050000  21.8860000 -28.8510000 -26.4250000  21.2210000 -28.3940000
 -26.8340000  21.8480000 -28.8450000 -21.6250000  29.9570000 -26.8000000
 -21.1850000  30.4640000 -26.1170000 -22.2960000  29.4600000 -26.3340000
 -21.6530000  29.9580000 -26.6530000 -31.1050000  29.4780000 -19.7360000
 -31.2620000  28.5340000 -19.7720000 -31.1930000  29.7700000 -20.6430000
 -31.1370000  29.3940000 -19.8570000 -24.2740000  23.2740000 -35.0580000
 -24.1700000  23.6180000 -34.1710000 -24.4050000  24.0500000 -35.6030000
 -24.2780000  23.4170000 -35.0140000 -21.6320000  24.1220000 -27.7310000
 -20.7200000  24.1330000 -27.4380000 -21.6320000  23.5370000 -28.4890000
 -21.5150000  24.0480000 -27.7900000 -23.7870000  28.4590000 -25.8800000
 -24.6620000  28.2020000 -26.1700000 -23.4350000  27.6760000 -25.4560000
 -23.8550000  28.3260000 -25.8630000 -32.0450000  20.4480000 -37.0710000
 -31.7030000  20.4570000 -36.1770000 -32.5300000  21.2700000 -37.1490000
 -32.0640000  20.5550000 -36.9670000 -29.4420000  24.9590000 -29.4170000
 -29.3560000  24.1750000 -28.8740000 -29.0030000  25.6460000 -28.9170000
 -29.3750000  24.9470000 -29.2840000 -20.7800000  22.5770000 -20.0770000
 -21.6800000  22.2490000 -20.0820000 -20.4550000  22.4000000 -20.9590000
 -20.8550000  22.5120000 -20.1900000 -22.3460000  19.0980000 -35.2030000
 -22.2180000  20.0130000 -35.4550000 -23.2950000  19.0030000 -35.1180000
 -22.4510000  19.2030000 -35.2240000 -16.6020000  26.3640000 -29.8240000
 -16.5880000  26.0510000 -28.9190000 -16.6520000  27.3170000 -29.7470000
 -16.6060000  26.4460000 -29.6980000 -27.2100000  24.3000000 -35.9410000
 -27.8350000  23.5760000 -35.9170000 -26.9910000  24.4590000 -35.0230000
 -27.2610000  24.2280000 -35.8210000 -30.4710000  25.9480000 -23.8210000
 -31.3160000  25.6280000 -23.5040000 -29.9980000  25.1570000 -24.0800000
 -30.5200000  25.8060000 -23.8130000 -33.5450000  31.1340000 -19.4870000
 -32.7330000  30.6460000 -19.6290000 -33.8140000  31.4110000 -20.3630000
 -33.4760000  31.1070000 -19.6180000 -20.7440000  21.8150000 -22.6460000
 -21.6100000  21.6510000 -23.0170000 -20.1610000  21.2230000 -23.1240000
 -20.7800000  21.7180000 -22.7550000 -21.0370000  27.2650000 -35.9400000
 -21.4940000  27.0240000 -35.1340000 -20.1110000  27.1250000 -35.7410000
 -20.9770000  27.2160000 -35.8110000 -31.2820000  30.1740000 -22.4590000
 -30.4030000  29.8010000 -22.5110000 -31.8200000  29.5930000 -22.9960000
 -31.2380000  30.0520000 -22.5340000 -22.9120000  22.9820000 -30.3520000
 -22.2160000  22.5960000 -30.8850000 -23.5220000  22.2600000 -30.1970000
 -22.9010000  22.8400000 -30.4010000 -24.8380000  28.4310000 -22.8100000
 -25.3950000  28.0370000 -23.4820000 -25.4150000  29.0410000 -22.3500000
 -24.9830000  28.4590000 -22.8370000 -20.9240000  27.6920000 -19.6160000
 -21.7470000  28.0320000 -19.9650000 -21.0690000  27.6360000 -18.6710000
 -21.0470000  27.7280000 -19.5400000 -27.0110000  24.4180000 -33.2770000
 -27.8350000  24.7010000 -32.8810000 -26.3340000  24.8040000 -32.7220000
 -27.0300000  24.5030000 -33.1550000 -34.0000000  28.0090000 -25.1840000
 -34.3760000  27.8820000 -24.3140000 -34.5630000  27.4980000 -25.7660000
 -34.1190000  27.9280000 -25.1470000 -24.9920000  29.5190000 -29.7290000
 -24.4470000  30.0200000 -29.1220000 -25.6860000  30.1260000 -29.9860000
 -25.0110000  29.6600000 -29.6840000 -22.2880000  26.7650000 -33.5360000
 -22.3320000  27.3840000 -32.8060000 -22.6550000  25.9540000 -33.1840000
 -22.3400000  26.7410000 -33.3970000 -27.5380000  27.6290000 -33.0570000
 -28.2100000  26.9480000 -33.0270000 -27.4600000  27.8460000 -33.9860000
 -27.6150000  27.5700000 -33.1720000 -33.8510000  22.4820000 -19.0940000
 -34.0050000  22.7620000 -19.9960000 -34.0890000  23.2420000 -18.5630000
 -33.9020000  22.6150000 -19.1410000 -31.9180000  26.6030000 -19.9880000
 -32.0340000  26.3190000 -20.8950000 -32.8100000  26.7060000 -19.6550000
 -32.0480000  26.5800000 -20.0620000 -32.8730000  24.9300000 -25.1420000
 -33.4640000  24.1910000 -25.2940000 -32.2620000  24.9020000 -25.8770000
 -32.8700000  24.8320000 -25.2560000 -31.4880000  31.1220000 -27.1100000
 -31.5280000  30.1670000 -27.1470000 -31.9430000  31.3500000 -26.3000000
 -31.5510000  31.0290000 -27.0110000 -23.5230000  27.7750000 -20.4280000
 -24.2150000  27.1350000 -20.2600000 -23.7310000  28.1310000 -21.2910000
 -23.6380000  27.7380000 -20.5170000 -30.1590000  30.0580000 -36.0020000
 -30.5410000  29.7490000 -36.8230000 -29.9190000  30.9690000 -36.1770000
 -30.1760000  30.1350000 -36.1290000 -31.3310000  20.3280000 -34.3200000
 -31.0860000  19.4530000 -34.0190000 -31.5460000  20.8050000 -33.5190000
 -31.3280000  20.2770000 -34.1790000 -26.0990000  22.0770000 -31.7820000
 -26.3930000  22.7920000 -32.3460000 -26.3700000  22.3380000 -30.9020000
 -26.1710000  22.2020000 -31.7420000 -34.4930000  24.5930000 -36.2860000
 -35.4180000  24.3500000 -36.2480000 -34.4970000  25.5130000 -36.5510000
 -34.6110000  24.6800000 -36.3150000 -32.5240000  28.9460000 -32.9970000
 -31.7010000  29.4320000 -33.0350000 -32.4730000  28.4510000 -32.1800000
 -32.4120000  28.9450000 -32.8980000 -30.2300000  30.5830000 -32.9950000
 -30.7530000  31.2860000 -32.6090000 -30.2170000  30.7790000 -33.9310000
 -30.2940000  30.6980000 -33.0650000 -23.1860000  25.4500000 -36.8310000
 -22.7090000  25.0970000 -37.5800000 -22.6850000  26.2220000 -36.5680000
 -23.0610000  25.5040000 -36.8930000 -34.2920000  30.8860000 -22.0010000
 -34.3300000  31.2030000 -22.9030000 -35.1650000  30.5270000 -21.8360000
 -34.4090000  30.8800000 -22.0950000 -21.3340000  16.5300000 -27.4320000
 -21.1890000  16.9350000 -26.5770000 -22.2800000  16.5980000 -27.5710000
 -21.4360000  16.5900000 -27.3400000 -31.3590000  28.5830000 -24.9470000
 -31.0340000  27.7800000 -24.5400000 -32.2270000  28.3510000 -25.2730000
 -31.4280000  28.4510000 -24.9370000 -35.7420000  29.5170000 -18.9780000
 -34.9400000  30.0270000 -19.0880000 -36.1920000  29.9350000 -18.2440000
 -35.6970000  29.6360000 -18.8980000 -25.2460000  26.6650000 -29.7180000
 -24.7480000  26.4580000 -30.5090000 -25.0620000  27.5900000 -29.5540000
 -25.1590000  26.7570000 -29.7980000 -30.6210000  25.4110000 -35.9770000
 -31.1030000  24.5940000 -36.1080000 -30.1870000  25.5700000 -36.8150000
 -30.6280000  25.3270000 -36.1010000 -27.9250000  27.2610000 -29.0950000
 -28.3320000  28.0210000 -29.5110000 -27.0640000  27.1960000 -29.5050000
 -27.8670000  27.3500000 -29.2010000 -23.3880000  28.5000000 -31.6130000
 -22.7150000  28.9120000 -31.0730000 -24.1980000  28.9460000 -31.3670000
 -23.4050000  28.6100000 -31.5130000 -35.2350000  28.9910000 -28.1100000
 -34.2780000  28.9750000 -28.1290000 -35.4800000  28.1770000 -27.6700000
 -35.1430000  28.8850000 -28.0560000 -24.9310000  23.0010000 -25.5710000
 -25.3850000  23.4430000 -26.2890000 -25.4730000  23.1760000 -24.8020000
 -25.0580000  23.0800000 -25.5650000 -19.7660000  27.9290000 -26.6270000
 -20.1550000  27.4550000 -25.8910000 -20.3020000  28.7180000 -26.7130000
 -19.8850000  27.9690000 -26.5440000 -26.3920000  24.4770000 -27.7610000
 -25.7660000  24.9270000 -28.3280000 -26.5340000  23.6300000 -28.1850000
 -26.3300000  24.4260000 -27.8880000 -26.3680000  21.2220000 -35.0050000
 -27.1280000  21.4700000 -35.5330000 -25.8140000  22.0020000 -35.0040000
 -26.3950000  21.3540000 -35.0720000 -33.8330000  24.5150000 -33.2880000
 -33.9230000  24.2440000 -34.2010000 -34.7320000  24.6720000 -32.9950000
 -33.9610000  24.5010000 -33.3670000 -24.2460000  20.4060000 -30.4920000
 -24.9090000  20.8120000 -31.0520000 -23.5510000  20.1430000 -31.0950000
 -24.2420000  20.4250000 -30.6410000 -22.6340000  25.6380000 -25.1130000
 -22.8980000  24.9860000 -24.4630000 -22.4150000  25.1250000 -25.8910000
 -22.6400000  25.4890000 -25.1290000 -31.8870000  27.4310000 -30.8880000
 -31.6990000  26.6790000 -31.4500000 -31.0320000  27.8220000 -30.7180000
 -31.7550000  27.3850000 -30.9380000 -30.2310000  22.2910000 -21.6480000
 -29.3100000  22.3670000 -21.4040000 -30.6830000  22.9080000 -21.0730000
 -30.1710000  22.3790000 -21.5440000 -33.2410000  19.3010000 -28.7290000
 -33.0700000  20.2220000 -28.5300000 -32.6740000  18.8170000 -28.1280000
 -33.1470000  19.3570000 -28.6270000 -32.3870000  28.4280000 -28.3360000
 -32.1300000  28.0100000 -29.1580000 -32.3030000  27.7360000 -27.6800000
 -32.3420000  28.2860000 -28.3570000 -21.5800000  19.1670000 -18.9130000
 -22.1210000  18.6520000 -18.3150000 -22.0450000  20.0000000 -19.0000000
 -21.7090000  19.2080000 -18.8470000 -20.2110000  26.7180000 -23.7150000
 -21.1070000  26.3930000 -23.8020000 -20.3110000  27.6130000 -23.3900000
 -20.3390000  26.7910000 -23.6840000 -28.0150000  28.4050000 -35.6770000
 -27.2850000  29.0250000 -35.6880000 -28.7970000  28.9560000 -35.7080000
 -28.0220000  28.5550000 -35.6830000 -28.3830000  25.7860000 -26.5610000
 -28.8320000  25.0320000 -26.1790000 -27.6610000  25.4060000 -27.0610000
 -28.3480000  25.6410000 -26.5760000 -26.8480000  29.9100000 -24.8490000
 -27.1250000  30.7340000 -24.4470000 -25.8970000  29.8970000 -24.7400000
 -26.7610000  30.0140000 -24.7840000 -31.3600000  22.5230000 -32.5780000
 -31.5090000  23.4660000 -32.6560000 -32.1530000  22.1910000 -32.1540000
 -31.4800000  22.6010000 -32.5340000 -27.7100000  22.8670000 -20.1590000
 -28.1750000  23.4650000 -19.5750000 -27.1150000  23.4310000 -20.6540000
 -27.6930000  23.0150000 -20.1480000 -32.1050000  23.0120000 -35.9830000
 -33.0220000  22.7970000 -35.8170000 -31.6300000  22.6240000 -35.2480000
 -32.1610000  22.9350000 -35.8680000 -35.4630000  27.7580000 -22.7120000
 -36.1420000  28.3970000 -22.4920000 -35.8720000  26.9090000 -22.5490000
 -35.6030000  27.7310000 -22.6630000 -26.3970000  28.2000000 -26.7630000
 -26.6650000  28.8430000 -26.1060000 -27.1960000  28.0180000 -27.2590000
 -26.5340000  28.2590000 -26.7430000 -26.4200000  26.5340000 -24.2010000
 -26.5840000  26.8430000 -25.0920000 -27.2820000  26.2700000 -23.8780000
 -26.5510000  26.5400000 -24.2730000 -26.1980000  20.7550000 -20.0630000
 -26.2010000  20.4650000 -20.9750000 -26.8700000  21.4360000 -20.0260000
 -26.2850000  20.8050000 -20.1750000 -34.5400000  19.4180000 -36.0550000
 -34.5390000  20.1600000 -35.4510000 -34.0360000  19.7220000 -36.8090000
 -34.4750000  19.5520000 -36.0740000 -26.4880000  30.1970000 -21.6650000
 -27.3060000  30.0410000 -22.1360000 -26.4400000  31.1490000 -21.5760000
 -26.5860000  30.2990000 -21.7140000 -22.1380000  24.8930000 -20.4340000
 -21.4250000  24.2610000 -20.3390000 -21.6980000  25.7300000 -20.5800000
 -21.9910000  24.9190000 -20.4410000 -33.0130000  30.8320000 -29.8060000
 -33.1010000  31.6120000 -29.2570000 -32.9420000  30.1080000 -29.1830000
 -33.0160000  30.8390000 -29.6560000 -32.9120000  25.9730000 -22.6220000
 -33.0030000  25.8530000 -23.5670000 -33.6350000  26.5510000 -22.3840000
 -33.0160000  26.0320000 -22.7130000 -31.8300000  19.4890000 -31.1700000
 -32.2350000  19.1580000 -30.3680000 -31.7220000  18.7150000 -31.7220000
 -31.8670000  19.3480000 -31.1380000 -31.2860000  25.5350000 -33.2840000
 -30.9130000  25.4700000 -34.1630000 -32.1910000  25.2390000 -33.3850000
 -31.3550000  25.4880000 -33.4090000 -29.1410000  22.4320000 -30.8990000
 -29.9930000  22.2940000 -31.3110000 -29.0910000  23.3790000 -30.7630000
 -29.2430000  22.5360000 -30.9340000 -34.2690000  23.1000000 -21.7080000
 -33.4780000  23.1330000 -22.2450000 -34.6300000  23.9860000 -21.7560000
 -34.2140000  23.2170000 -21.7830000 -28.0960000  26.1030000 -37.6600000
 -28.1150000  26.7530000 -36.9580000 -27.7410000  25.3150000 -37.2480000
 -28.0530000  26.0860000 -37.5180000 -23.1130000  21.3530000 -20.2390000
 -23.0520000  21.0060000 -21.1290000 -24.0530000  21.4010000 -20.0650000
 -23.2260000  21.3150000 -20.3310000 -28.4230000  20.6060000 -32.8080000
 -28.6480000  21.3910000 -32.3090000 -27.5240000  20.7580000 -33.1000000
 -28.3360000  20.7260000 -32.7810000 -22.9960000  20.3260000 -27.9380000
 -22.1250000  19.9330000 -27.8810000 -23.0950000  20.5570000 -28.8610000
 -22.8970000  20.3050000 -28.0490000 -26.0890000  20.5930000 -22.8040000
 -26.3480000  19.8170000 -23.3010000 -25.1320000  20.5980000 -22.8520000
 -26.0000000  20.4940000 -22.8740000 -22.9710000  24.1910000 -32.6900000
 -23.1920000  23.9410000 -31.7920000 -22.1550000  23.7250000 -32.8730000
 -22.8950000  24.0990000 -32.5980000 -29.1680000  22.7410000 -27.5230000
 -30.0200000  22.3100000 -27.6100000 -29.0700000  22.8880000 -26.5820000
 -29.2650000  22.7050000 -27.4140000 -30.5370000  19.7620000 -20.3720000
 -31.0900000  20.0730000 -19.6560000 -30.4760000  20.5080000 -20.9690000
 -30.6010000  19.8970000 -20.3570000 -20.2800000  24.2150000 -34.8540000
 -21.1030000  23.7280000 -34.9020000 -20.5320000  25.0790000 -34.5260000
 -20.4170000  24.2630000 -34.8180000 -23.2230000  31.5480000 -20.8350000
 -23.8630000  31.0150000 -20.3630000 -23.2610000  31.2250000 -21.7360000
 -23.3100000  31.4380000 -20.8900000 -35.1930000  22.8960000 -27.9090000
 -35.2870000  22.4290000 -28.7390000 -34.3700000  22.5730000 -27.5440000
 -35.1010000  22.7950000 -27.9680000 -20.5560000  29.3850000 -23.0180000
 -21.4470000  29.6010000 -22.7400000 -20.2800000  30.1380000 -23.5400000
 -20.6350000  29.5090000 -23.0490000 -33.0300000  22.1540000 -26.6530000
 -32.5780000  21.5750000 -26.0390000 -32.4670000  22.1690000 -27.4260000
 -32.9000000  22.0820000 -26.6730000 -23.1300000  30.4240000 -23.2340000
 -23.7390000  29.6880000 -23.1780000 -23.5610000  31.0480000 -23.8170000
 -23.2620000  30.4090000 -23.3010000 -34.0320000  31.0120000 -24.8090000
 -34.4920000  31.3560000 -25.5740000 -33.9510000  30.0740000 -24.9810000
 -34.0800000  30.9360000 -24.9290000 -35.8360000  28.6530000 -32.6240000
 -34.8800000  28.6850000 -32.5970000 -36.1070000  29.5700000 -32.5860000
 -35.7470000  28.7740000 -32.6160000 -30.9950000  24.1120000 -19.6810000
 -31.7600000  23.7150000 -19.2630000 -31.2500000  25.0230000 -19.8290000
 -31.1260000  24.1780000 -19.6460000 -34.4760000  21.9430000 -34.6530000
 -34.1680000  22.0080000 -33.7490000 -35.3940000  21.6850000 -34.5740000
 -34.5550000  21.9180000 -34.5270000 -25.1670000  26.2040000 -32.2690000
 -24.5470000  26.6480000 -32.8480000 -25.9780000  26.7080000 -32.3540000
 -25.1910000  26.3260000 -32.3540000 -29.4560000  28.6670000 -30.8960000
 -28.9420000  28.0670000 -31.4360000 -29.7300000  29.3570000 -31.5000000
 -29.4260000  28.6780000 -31.0420000 -23.4150000  21.8960000 -23.3370000
 -23.7010000  22.7220000 -22.9460000 -23.6370000  21.9800000 -24.2640000
 -23.4800000  22.0130000 -23.4050000 -19.3990000  23.2320000 -30.8510000
 -18.8170000  23.7170000 -31.4370000 -19.9650000  23.9020000 -30.4680000
 -19.3970000  23.3800000 -30.8770000 -25.0200000  30.0080000 -19.5430000
 -25.8310000  30.0460000 -20.0500000 -24.6560000  29.1450000 -19.7380000
 -25.0780000  29.9030000 -19.6330000 -31.6800000  22.0510000 -28.9850000
 -31.8590000  22.6410000 -29.7170000 -31.1950000  21.3240000 -29.3750000
 -31.6410000  22.0340000 -29.1280000 -21.7070000  29.7380000 -29.6220000
 -20.8530000  29.3970000 -29.8920000 -21.6850000  29.7090000 -28.6660000
 -21.5950000  29.6900000 -29.5350000 -28.7760000  26.6490000 -21.7170000
 -29.5300000  26.3190000 -22.2060000 -28.9780000  26.4510000 -20.8030000
 -28.8980000  26.5810000 -21.6630000 -25.2260000  25.9720000 -19.6480000
 -26.0100000  25.9330000 -19.1000000 -24.5900000  25.4210000 -19.1940000
 -25.2450000  25.8970000 -19.5200000 -19.6300000  19.7640000 -30.1140000
 -20.2260000  19.4140000 -29.4520000 -18.9120000  19.1320000 -30.1490000
 -19.6140000  19.6390000 -30.0340000 -23.5600000  30.4090000 -34.4070000
 -23.1650000  30.7500000 -33.6050000 -23.0700000  30.8280000 -35.1140000
 -23.4470000  30.5060000 -34.3950000 -23.8320000  24.4950000 -22.4450000
 -23.1380000  24.6890000 -21.8130000 -24.4670000  25.2010000 -22.3270000
 -23.8250000  24.6100000 -22.3490000 -31.2550000  21.4360000 -42.9860000
 -31.0260000  21.4080000 -42.0570000 -31.8840000  20.7240000 -43.0990000
 -31.3050000  21.3410000 -42.8810000 -33.3390000  19.7220000 -43.4800000
 -33.8990000  20.1700000 -42.8460000 -33.4850000  18.7910000 -43.3130000
 -33.4280000  19.6600000 -43.3780000 -29.1250000  23.1720000 -43.6270000
 -29.7280000  22.5310000 -43.2520000 -28.3350000  23.1030000 -43.0890000
 -29.1010000  23.0820000 -43.5100000 -28.5860000  19.6090000 -37.3490000
 -27.6950000  19.3800000 -37.6130000 -29.1090000  19.4880000 -38.1420000
 -28.5380000  19.5650000 -37.4840000 -26.7010000  22.9980000 -42.3580000
 -26.5230000  22.1160000 -42.0330000 -26.3830000  23.5780000 -41.6670000
 -26.6370000  22.9590000 -42.2280000 -28.8110000  29.2330000 -41.5870000
 -28.9400000  28.3680000 -41.1980000 -28.3680000  29.0580000 -42.4180000
 -28.7710000  29.1000000 -41.6440000 -34.9930000  20.5650000 -41.4420000
 -34.7870000  21.4630000 -41.1850000 -35.3500000  20.1640000 -40.6490000
 -35.0120000  20.6280000 -41.3080000 -26.6450000  25.0540000 -40.4430000
 -26.0600000  25.3670000 -39.7540000 -27.3710000  25.6790000 -40.4430000
 -26.6630000  25.1740000 -40.3550000 -31.0500000  26.1300000 -45.9660000
 -30.1690000  26.4220000 -45.7330000 -30.9650000  25.7960000 -46.8580000
 -30.9260000  26.1250000 -46.0510000 -26.7530000  21.9490000 -47.7820000
 -27.7050000  21.8860000 -47.7110000 -26.4250000  21.2210000 -47.2540000
 -26.8340000  21.8480000 -47.7050000 -21.6250000  29.9570000 -45.6600000
 -21.1850000  30.4640000 -44.9770000 -22.2960000  29.4600000 -45.1940000
 -21.6530000  29.9580000 -45.5130000 -31.1050000  29.4780000 -38.5960000
 -31.2620000  28.5340000 -38.6320000 -31.1930000  29.7700000 -39.5030000
 -31.1370000  29.3940000 -38.7170000 -21.6320000  24.1220000 -46.5910000
 -20.7200000  24.1330000 -46.2980000 -21.6320000  23.5370000 -47.3490000
 -21.5150000  24.0480000 -46.6500000 -23.7870000  28.4590000 -44.7400000
 -24.6620000  28.2020000 -45.0300000 -23.4350000  27.6760000 -44.3150000
 -23.8550000  28.3260000 -44.7230000 -29.4420000  24.9590000 -48.2770000
 -29.3560000  24.1750000 -47.7330000 -29.0030000  25.6460000 -47.7770000
 -29.3750000  24.9470000 -48.1440000 -20.7800000  22.5770000 -38.9370000
 -21.6800000  22.2490000 -38.9420000 -20.4550000  22.4000000 -39.8190000
 -20.8550000  22.5120000 -39.0500000 -16.6020000  26.3640000 -48.6840000
 -16.5880000  26.0510000 -47.7790000 -16.6520000  27.3170000 -48.6070000
 -16.6060000  26.4460000 -48.5580000 -30.4710000  25.9480000 -42.6810000
 -31.3160000  25.6280000 -42.3640000 -29.9980000  25.1570000 -42.9400000
 -30.5200000  25.8060000 -42.6730000 -33.5450000  31.1340000 -38.3470000
 -32.7330000  30.6460000 -38.4890000 -33.8140000  31.4110000 -39.2230000
 -33.4760000  31.1070000 -38.4780000 -20.7440000  21.8150000 -41.5060000
 -21.6100000  21.6510000 -41.8770000 -20.1610000  21.2230000 -41.9830000
 -20.7800000  21.7180000 -41.6150000 -31.2820000  30.1740000 -41.3190000
 -30.4030000  29.8010000 -41.3710000 -31.8200000  29.5930000 -41.8560000
 -31.2380000  30.0520000 -41.3940000 -24.8380000  28.4310000 -41.6700000
 -25.3950000  28.0370000 -42.3420000 -25.4150000  29.0410000 -41.2100000
 -24.9830000  28.4590000 -41.6970000 -20.9240000  27.6920000 -38.4760000
 -21.7470000  28.0320000 -38.8250000 -21.0690000  27.6360000 -37.5310000
 -21.0470000  27.7280000 -38.4000000 -34.0000000  28.0090000 -44.0440000
 -34.3760000  27.8820000 -43.1740000 -34.5630000  27.4980000 -44.6260000
 -34.1190000  27.9280000 -44.0070000 -24.9920000  29.5190000 -48.5890000
 -24.4470000  30.0200000 -47.9820000 -25.6860000  30.1260000 -48.8460000
 -25.0110000  29.6600000 -48.5440000 -33.8510000  22.4820000 -37.9530000
 -34.0050000  22.7620000 -38.8560000 -34.0890000  23.2420000 -37.4230000
 -33.9020000  22.6150000 -38.0010000 -31.9180000  26.6030000 -38.8480000
 -32.0340000  26.3190000 -39.7550000 -32.8100000  26.7060000 -38.5150000
 -32.0480000  26.5800000 -38.9220000 -32.8730000  24.9300000 -44.0020000
 -33.4640000  24.1910000 -44.1540000 -32.2620000  24.9020000 -44.7370000
 -32.8700000  24.8320000 -44.1160000 -31.4880000  31.1220000 -45.9700000
 -31.5280000  30.1670000 -46.0070000 -31.9430000  31.3500000 -45.1600000
 -31.5510000  31.0290000 -45.8710000 -23.5230000  27.7750000 -39.2880000
 -24.2150000  27.1350000 -39.1200000 -23.7310000  28.1310000 -40.1510000
 -23.6380000  27.7380000 -39.3770000 -34.2920000  30.8860000 -40.8610000
 -34.3300000  31.2030000 -41.7630000 -35.1650000  30.5270000 -40.6960000
 -34.4090000  30.8800000 -40.9550000 -21.3340000  16.5300000 -46.2920000
 -21.1890000  16.9350000 -45.4370000 -22.2800000  16.5980000 -46.4310000
 -21.4360000  16.5900000 -46.2000000 -31.3590000  28.5830000 -43.8070000
 -31.0340000  27.7800000 -43.4000000 -32.2270000  28.3510000 -44.1330000
 -31.4280000  28.4510000 -43.7970000 -35.7420000  29.5170000 -37.8380000
 -34.9400000  30.0270000 -37.9470000 -36.1920000  29.9350000 -37.1040000
 -35.6970000  29.6360000 -37.7580000 -27.9250000  27.2610000 -47.9550000
 -28.3320000  28.0210000 -48.3710000 -27.0640000  27.1960000 -48.3650000
 -27.8670000  27.3500000 -48.0610000 -35.2350000  28.9910000 -46.9700000
 -34.2780000  28.9750000 -46.9890000 -35.4800000  28.1770000 -46.5300000
 -35.1430000  28.8850000 -46.9160000 -24.9310000  23.0010000 -44.4310000
 -25.3850000  23.4430000 -45.1490000 -25.4730000  23.1760000 -43.6620000
 -25.0580000  23.0800000 -44.4250000 -19.7660000  27.9290000 -45.4870000
 -20.1550000  27.4550000 -44.7510000 -20.3020000  28.7180000 -45.5730000
 -19.8850000  27.9690000 -45.4040000 -26.3920000  24.4770000 -46.6210000
 -25.7660000  24.9270000 -47.1880000 -26.5340000  23.6300000 -47.0450000
 -26.3300000  24.4260000 -46.7480000 -22.6340000  25.6380000 -43.9730000
 -22.8980000  24.9860000 -43.3230000 -22.4150000  25.1250000 -44.7510000
 -22.6400000  25.4890000 -43.9890000 -30.2310000  22.2910000 -40.5080000
 -29.3100000  22.3670000 -40.2640000 -30.6830000  22.9080000 -39.9330000
 -30.1710000  22.3790000 -40.4040000 -33.2410000  19.3010000 -47.5890000
 -33.0700000  20.2220000 -47.3900000 -32.6740000  18.8170000 -46.9880000
 -33.1470000  19.3570000 -47.4870000 -32.3870000  28.4280000 -47.1960000
 -32.1300000  28.0100000 -48.0180000 -32.3030000  27.7360000 -46.5400000
 -32.3420000  28.2860000 -47.2170000 -21.5800000  19.1670000 -37.7730000
 -22.1210000  18.6520000 -37.1750000 -22.0450000  20.0000000 -37.8600000
 -21.7090000  19.2080000 -37.7070000 -20.2110000  26.7180000 -42.5750000
 -21.1070000  26.3930000 -42.6620000 -20.3110000  27.6130000 -42.2500000
 -20.3390000  26.7910000 -42.5440000 -28.3830000  25.7860000 -45.4210000
 -28.8320000  25.0320000 -45.0390000 -27.6610000  25.4060000 -45.9210000
 -28.3480000  25.6410000 -45.4360000 -27.7100000  22.8670000 -39.0190000
 -28.1750000  23.4650000 -38.4350000 -27.1150000  23.4310000 -39.5140000
 -27.6930000  23.0150000 -39.0080000 -35.4630000  27.7580000 -41.5720000
 -36.1420000  28.3970000 -41.3520000 -35.8720000  26.9090000 -41.4090000
 -35.6030000  27.7310000 -41.5230000 -26.3970000  28.2000000 -45.6230000
 -26.6650000  28.8430000 -44.9650000 -27.1960000  28.0180000 -46.1190000
 -26.5340000  28.2590000 -45.6030000 -26.4200000  26.5340000 -43.0610000
 -26.5840000  26.8430000 -43.9520000 -27.2820000  26.2700000 -42.7380000
 -26.5510000  26.5400000 -43.1330000 -26.1980000  20.7550000 -38.9230000
 -26.2010000  20.4650000 -39.8350000 -26.8700000  21.4360000 -38.8860000
 -26.2850000  20.8050000 -39.0350000 -26.4880000  30.1970000 -40.5250000
 -27.3060000  30.0410000 -40.9960000 -26.4400000  31.1490000 -40.4360000
 -26.5860000  30.2990000 -40.5740000 -22.1380000  24.8930000 -39.2940000
 -21.4250000  24.2610000 -39.1990000 -21.6980000  25.7300000 -39.4400000
 -21.9910000  24.9190000 -39.3010000 -33.0130000  30.8320000 -48.6660000
 -33.1010000  31.6120000 -48.1170000 -32.9420000  30.1080000 -48.0430000
 -33.0160000  30.8390000 -48.5160000 -32.9120000  25.9730000 -41.4820000
 -33.0030000  25.8530000 -42.4270000 -33.6350000  26.5510000 -41.2440000
 -33.0160000  26.0320000 -41.5730000 -34.2690000  23.1000000 -40.5680000
 -33.4780000  23.1330000 -41.1050000 -34.6300000  23.9860000 -40.6160000
 -34.2140000  23.2170000 -40.6430000 -23.1130000  21.3530000 -39.0990000
 -23.0520000  21.0060000 -39.9890000 -24.0530000  21.4010000 -38.9250000
 -23.2260000  21.3150000 -39.1910000 -22.9960000  20.3260000 -46.7980000
 -22.1250000  19.9330000 -46.7410000 -23.0950000  20.5570000 -47.7210000
 -22.8970000  20.3050000 -46.9090000 -26.0890000  20.5930000 -41.6640000
 -26.3480000  19.8170000 -42.1610000 -25.1320000  20.5980000 -41.7120000
 -26.0000000  20.4940000 -41.7330000 -29.1680000  22.7410000 -46.3830000
 -30.0200000  22.3100000 -46.4700000 -29.0700000  22.8880000 -45.4420000
 -29.2650000  22.7050000 -46.2740000 -30.5370000  19.7620000 -39.2320000
 -31.0900000  20.0730000 -38.5160000 -30.4760000  20.5080000 -39.8290000
 -30.6010000  19.8970000 -39.2170000 -23.2230000  31.5480000 -39.6950000
 -23.8630000  31.0150000 -39.2230000 -23.2610000  31.2250000 -40.5960000
 -23.3100000  31.4380000 -39.7500000 -35.1930000  22.8960000 -46.7690000
 -35.2870000  22.4290000 -47.5990000 -34.3700000  22.5730000 -46.4040000
 -35.1010000  22.7950000 -46.8280000 -20.5560000  29.3850000 -41.8780000
 -21.4470000  29.6010000 -41.6000000 -20.2800000  30.1380000 -42.4000000
 -20.6350000  29.5090000 -41.9090000 -33.0300000  22.1540000 -45.5130000
 -32.5780000  21.5750000 -44.8990000 -32.4670000  22.1690000 -46.2860000
 -32.9000000  22.0820000 -45.5330000 -23.1300000  30.4240000 -42.0940000
 -23.7390000  29.6880000 -42.0380000 -23.5610000  31.0480000 -42.6770000
 -23.2620000  30.4090000 -42.1610000 -34.0320000  31.0120000 -43.6690000
 -34.4920000  31.3560000 -44.4340000 -33.9510000  30.0740000 -43.8400000
 -34.0800000  30.9360000 -43.7890000 -30.9950000  24.1120000 -38.5410000
 -31.7600000  23.7150000 -38.1230000 -31.2500000  25.0230000 -38.6890000
 -31.1260000  24.1780000 -38.5060000 -23.4150000  21.8960000 -42.1970000
 -23.7010000  22.7220000 -41.8060000 -23.6370000  21.9800000 -43.1240000
 -23.4800000  22.0130000 -42.2650000 -25.0200000  30.0080000 -38.4030000
 -25.8310000  30.0460000 -38.9100000 -24.6560000  29.1450000 -38.5980000
 -25.0780000  29.9030000 -38.4930000 -31.6800000  22.0510000 -47.8450000
 -31.8590000  22.6410000 -48.5770000 -31.1950000  21.3240000 -48.2350000
 -31.6410000  22.0340000 -47.9880000 -21.7070000  29.7380000 -48.4820000
 -20.8530000  29.3970000 -48.7520000 -21.6850000  29.7090000 -47.5260000
 -21.5950000  29.6900000 -48.3950000 -28.7760000  26.6490000 -40.5770000
 -29.5300000  26.3190000 -41.0650000 -28.9780000  26.4510000 -39.6630000
 -28.8980000  26.5810000 -40.5230000 -25.2260000  25.9720000 -38.5080000
 -26.0100000  25.9330000 -37.9600000 -24.5900000  25.4210000 -38.0540000
 -25.2450000  25.8970000 -38.3800000 -19.6300000  19.7640000 -48.9740000
 -20.2260000  19.4140000 -48.3120000 -18.9120000  19.1320000 -49.0090000
 -19.6140000  19.6390000 -48.8940000 -23.8320000  24.4950000 -41.3050000
 -23.1380000  24.6890000 -40.6730000 -24.4670000  25.2010000 -41.1870000
 -23.8250000  24.6100000 -41.2090000 -29.0900000  14.1990000  44.7380000
 -29.2640000  14.3600000  45.6650000 -29.8550000  13.7130000  44.4320000
 -29.2100000  14.1570000  44.8180000 -32.5190000   9.0960000  40.0680000
 -32.6730000   9.5530000  40.8950000 -31.8080000   8.4860000  40.2600000
 -32.4480000   9.0760000  40.1980000 -22.3580000  15.2550000  38.2550000
 -23.2200000  15.5830000  37.9980000 -22.4550000  14.3030000  38.2530000
 -22.4810000  15.1750000  38.2220000 -35.6320000  15.3520000  45.0320000
 -35.5940000  16.2450000  44.6870000 -36.4320000  15.3310000  45.5580000
 -35.7300000  15.4640000  45.0550000 -30.9210000  17.1420000  41.7200000
 -31.7200000  16.6150000  41.7300000 -30.5780000  17.0390000  40.8330000
 -30.9800000  17.0610000  41.6080000 -27.0140000  12.1270000  44.1870000
 -27.4400000  11.5200000  43.5830000 -27.6760000  12.7940000  44.3650000
 -27.1530000  12.1350000  44.1330000 -21.2610000   2.7590000  43.4400000
 -21.1940000   1.8120000  43.3170000 -20.3920000   3.0240000  43.7420000
 -21.1410000   2.6720000  43.4640000 -20.1420000   7.0500000  45.2820000
 -20.9210000   7.1600000  45.8270000 -19.7980000   7.9360000  45.1720000
 -20.1980000   7.1770000  45.3370000 -29.0460000   3.1780000  39.4300000
 -29.3120000   2.7150000  40.2240000 -29.0300000   2.5010000  38.7530000
 -29.0780000   3.0320000  39.4450000 -25.9350000  11.3180000  39.7320000
 -25.1650000  11.3390000  40.2990000 -25.6160000  10.9510000  38.9090000
 -25.7960000  11.2740000  39.6990000 -20.2000000  10.9550000  41.4630000
 -20.5650000  11.5960000  42.0730000 -20.9650000  10.5330000  41.0700000
 -20.3440000  10.9830000  41.4900000 -22.2170000  12.5550000  38.4800000
 -22.1750000  12.4210000  37.5320000 -21.3320000  12.8220000  38.7220000
 -22.0980000  12.5720000  38.3890000 -21.8750000   2.9850000  40.5670000
 -21.7420000   2.8410000  41.5050000 -22.7420000   3.3840000  40.5070000
 -21.9680000   3.0170000  40.6800000 -25.2240000  14.7220000  45.0680000
 -25.0480000  15.5720000  44.6650000 -25.9840000  14.3850000  44.5940000
 -25.2980000  14.7880000  44.9570000 -25.4350000  18.0470000  46.3200000
 -24.8480000  18.7840000  46.1450000 -26.2160000  18.2330000  45.8020000
 -25.4590000  18.1650000  46.2320000 -33.1130000   5.3020000  44.8400000
 -33.5190000   5.3010000  43.9730000 -33.5980000   5.9650000  45.3320000
 -33.2260000   5.3870000  44.7930000 -33.6860000   2.4890000  43.5580000
 -34.4430000   2.4760000  44.1430000 -33.1530000   1.7450000  43.8390000
 -33.7140000   2.3920000  43.6690000 -29.0260000   6.6880000  43.3890000
 -29.8510000   6.6700000  42.9040000 -29.2760000   6.5020000  44.2940000
 -29.1630000   6.6620000  43.4430000 -31.9110000  16.3530000  48.0070000
 -32.1730000  15.9780000  48.8480000 -31.1800000  15.8080000  47.7180000
 -31.8510000  16.2350000  48.0770000 -33.6730000  14.5460000  46.7220000
 -34.3970000  14.8490000  46.1730000 -33.0800000  15.2960000  46.7690000
 -33.6900000  14.6810000  46.6570000 -34.2010000   8.3100000  38.0590000
 -34.8030000   9.0470000  37.9640000 -33.5710000   8.6000000  38.7200000
 -34.1970000   8.4410000  38.1320000 -29.7730000  16.7720000  39.3520000
 -29.3150000  15.9500000  39.5240000 -29.0750000  17.4120000  39.2140000
 -29.6250000  16.7490000  39.3570000 -31.0500000   7.2630000  48.3340000
 -30.1690000   7.5550000  48.5670000 -30.9650000   6.9290000  47.4420000
 -30.9260000   7.2580000  48.2500000 -26.7530000   3.0820000  46.5180000
 -27.7050000   3.0190000  46.5890000 -26.4250000   2.3540000  47.0470000
 -26.8340000   2.9810000  46.5950000 -21.6250000  11.0900000  48.6400000
 -21.1850000  11.5970000  49.3230000 -22.2960000  10.5930000  49.1070000
 -21.6530000  11.0910000  48.7870000 -26.8970000  13.9190000  39.8070000
 -26.5930000  13.0260000  39.9630000 -26.3700000  14.4590000  40.3950000
 -26.7910000  13.8740000  39.9010000 -24.2740000   4.4070000  40.3820000
 -24.1700000   4.7510000  41.2690000 -24.4050000   5.1830000  39.8380000
 -24.2780000   4.5500000  40.4270000 -21.6320000   5.2550000  47.7090000
 -20.7200000   5.2660000  48.0030000 -21.6320000   4.6700000  46.9520000
 -21.5150000   5.1810000  47.6500000 -32.0450000   1.5810000  38.3690000
 -31.7030000   1.5900000  39.2630000 -32.5300000   2.4030000  38.2910000
 -32.0640000   1.6880000  38.4730000 -29.4420000   6.0920000  46.0230000
 -29.3560000   5.3080000  46.5670000 -29.0030000   6.7790000  46.5230000
 -29.3750000   6.0800000  46.1570000 -20.7650000  14.8320000  41.3600000
 -20.6430000  15.7070000  40.9920000 -20.5550000  14.2380000  40.6380000
 -20.7220000  14.8680000  41.2190000 -22.3460000   0.2310000  40.2380000
 -22.2180000   1.1460000  39.9860000 -23.2950000   0.1360000  40.3220000
 -22.4510000   0.3360000  40.2170000 -30.0140000  14.5800000  47.2320000
 -30.4940000  13.7720000  47.4090000 -29.2850000  14.5660000  47.8520000
 -29.9820000  14.4750000  47.3340000 -19.1710000   1.5690000  38.2380000
 -19.3470000   2.4100000  37.8170000 -19.9800000   1.0700000  38.1240000
 -19.2970000   1.6130000  38.1710000 -16.6020000   7.4970000  45.6170000
 -16.5880000   7.1840000  46.5220000 -16.6520000   8.4500000  45.6930000
 -16.6060000   7.5790000  45.7430000 -27.2100000   5.4330000  39.5000000
 -27.8350000   4.7090000  39.5230000 -26.9910000   5.5920000  40.4170000
 -27.2610000   5.3610000  39.6190000 -34.6370000  16.8390000  41.0770000
 -35.2190000  17.3370000  41.6500000 -34.4080000  17.4500000  40.3760000
 -34.6820000  16.9810000  41.0600000 -21.0370000   8.3980000  39.5000000
 -21.4940000   8.1570000  40.3070000 -20.1110000   8.2580000  39.6990000
 -20.9770000   8.3490000  39.6300000 -22.9120000   4.1150000  45.0890000
 -22.2160000   3.7290000  44.5550000 -23.5220000   3.3930000  45.2430000
 -22.9010000   3.9730000  45.0400000 -27.0110000   5.5510000  42.1630000
 -27.8350000   5.8340000  42.5590000 -26.3340000   5.9370000  42.7180000
 -27.0300000   5.6360000  42.2850000 -24.9920000  10.6520000  45.7120000
 -24.4470000  11.1530000  46.3180000 -25.6860000  11.2590000  45.4550000
 -25.0110000  10.7930000  45.7570000 -22.2880000   7.8980000  41.9040000
 -22.3320000   8.5170000  42.6350000 -22.6550000   7.0870000  42.2570000
 -22.3400000   7.8740000  42.0430000 -27.5380000   8.7620000  42.3830000
 -28.2100000   8.0810000  42.4130000 -27.4600000   8.9790000  41.4550000
 -27.6150000   8.7030000  42.2680000 -31.4880000  12.2550000  48.3300000
 -31.5280000  11.3000000  48.2930000 -31.9430000  12.4830000  49.1400000
 -31.5510000  12.1620000  48.4300000 -35.5720000  12.4550000  44.3520000
 -34.8930000  12.1750000  44.9650000 -35.4750000  13.4050000  44.3030000
 -35.4730000  12.5410000  44.4250000 -30.1590000  11.1910000  39.4390000
 -30.5410000  10.8820000  38.6170000 -29.9190000  12.1020000  39.2630000
 -30.1760000  11.2680000  39.3120000 -31.3310000   1.4610000  41.1200000
 -31.0860000   0.5860000  41.4220000 -31.5460000   1.9380000  41.9220000
 -31.3280000   1.4100000  41.2610000 -26.0990000   3.2100000  43.6580000
 -26.3930000   3.9250000  43.0940000 -26.3700000   3.4710000  44.5380000
 -26.1710000   3.3350000  43.6980000 -22.1460000  13.7620000  45.3600000
 -23.0610000  13.7720000  45.0770000 -22.0240000  12.8940000  45.7440000
 -22.2480000  13.6520000  45.3730000 -34.4930000   5.7260000  39.1540000
 -35.4180000   5.4830000  39.1920000 -34.4970000   6.6460000  38.8890000
 -34.6110000   5.8130000  39.1250000 -32.5240000  10.0790000  42.4430000
 -31.7010000  10.5650000  42.4050000 -32.4730000   9.5840000  43.2600000
 -32.4120000  10.0780000  42.5430000 -35.8330000  17.9540000  46.5190000
 -36.3750000  18.3770000  47.1870000 -34.9350000  18.1510000  46.7820000
 -35.7890000  18.0340000  46.6380000 -30.2300000  11.7160000  42.4450000
 -30.7530000  12.4190000  42.8320000 -30.2170000  11.9120000  41.5100000
 -30.2940000  11.8310000  42.3750000 -23.1860000   6.5830000  38.6100000
 -22.7090000   6.2300000  37.8610000 -22.6850000   7.3550000  38.8720000
 -23.0610000   6.6370000  38.5470000 -21.3340000  -2.3370000  48.0080000
 -21.1890000  -1.9320000  48.8630000 -22.2800000  -2.2690000  47.8690000
 -21.4360000  -2.2770000  48.1010000 -25.2460000   7.7980000  45.7230000
 -24.7480000   7.5910000  44.9320000 -25.0620000   8.7230000  45.8870000
 -25.1590000   7.8900000  45.6420000 -30.6210000   6.5440000  39.4640000
 -31.1030000   5.7270000  39.3320000 -30.1870000   6.7030000  38.6250000
 -30.6280000   6.4600000  39.3390000 -20.5580000  18.5700000  47.7900000
 -20.7050000  17.6270000  47.8720000 -19.9050000  18.7680000  48.4620000
 -20.4940000  18.4740000  47.8870000 -19.2250000  14.8480000  46.5770000
 -20.0700000  15.2610000  46.7600000 -19.3570000  13.9260000  46.7940000
 -19.3500000  14.7830000  46.6280000 -27.9250000   8.3940000  46.3450000
 -28.3320000   9.1540000  45.9300000 -27.0640000   8.3290000  45.9350000
 -27.8670000   8.4830000  46.2390000 -23.3880000   9.6330000  43.8270000
 -22.7150000  10.0450000  44.3680000 -24.1980000  10.0790000  44.0730000
 -23.4050000   9.7430000  43.9280000 -35.2350000  10.1240000  47.3300000
 -34.2780000  10.1080000  47.3120000 -35.4800000   9.3100000  47.7700000
 -35.1430000  10.0180000  47.3850000 -26.3920000   5.6100000  47.6800000
 -25.7660000   6.0600000  47.1130000 -26.5340000   4.7630000  47.2550000
 -26.3300000   5.5590000  47.5530000 -26.3680000   2.3550000  40.4360000
 -27.1280000   2.6030000  39.9070000 -25.8140000   3.1350000  40.4370000
 -26.3950000   2.4870000  40.3680000 -33.8330000   5.6480000  42.1530000
 -33.9230000   5.3770000  41.2390000 -34.7320000   5.8050000  42.4450000
 -33.9610000   5.6340000  42.0730000 -24.2460000   1.5390000  44.9480000
 -24.9090000   1.9450000  44.3880000 -23.5510000   1.2760000  44.3450000
 -24.2420000   1.5580000  44.8000000 -31.8870000   8.5640000  44.5530000
 -31.6990000   7.8120000  43.9900000 -31.0320000   8.9550000  44.7230000
 -31.7550000   8.5180000  44.5030000 -33.2410000   0.4340000  46.7120000
 -33.0700000   1.3550000  46.9100000 -32.6740000  -0.0500000  47.3120000
 -33.1470000   0.4900000  46.8140000 -29.4370000  13.7710000  38.8360000
 -28.5930000  13.7330000  39.2870000 -29.2150000  13.9760000  37.9280000
 -29.3000000  13.7920000  38.7780000 -32.3870000   9.5610000  47.1050000
 -32.1300000   9.1430000  46.2820000 -32.3030000   8.8690000  47.7600000
 -32.3420000   9.4190000  47.0830000 -25.0750000  14.0160000  47.5640000
 -24.9760000  14.2630000  46.6430000 -25.9280000  14.3660000  47.8150000
 -25.1710000  14.0920000  47.4780000 -27.6850000  18.4300000  44.9030000
 -27.8690000  17.6030000  44.4570000 -27.9960000  19.1030000  44.2970000
 -27.7480000  18.4100000  44.7670000 -26.0960000  17.6650000  37.9920000
 -25.9390000  18.5040000  37.5590000 -25.8350000  17.8120000  38.9010000
 -26.0420000  17.7910000  38.0530000 -23.9860000  16.4420000  48.1020000
 -24.5300000  17.0420000  47.5920000 -24.3780000  15.5810000  47.9570000
 -24.1050000  16.4090000  48.0180000 -29.8950000  18.8100000  47.0760000
 -29.9280000  18.1230000  47.7400000 -29.4180000  18.4150000  46.3450000
 -29.8390000  18.6720000  47.0680000 -28.0150000   9.5380000  39.7630000
 -27.2850000  10.1580000  39.7530000 -28.7970000  10.0890000  39.7320000
 -28.0220000   9.6880000  39.7570000 -28.3830000   6.9190000  48.8800000
 -28.8320000   6.1650000  49.2620000 -27.6610000   6.5390000  48.3800000
 -28.3480000   6.7740000  48.8640000 -31.3600000   3.6560000  42.8630000
 -31.5090000   4.5990000  42.7840000 -32.1530000   3.3240000  43.2870000
 -31.4800000   3.7340000  42.9070000 -27.4920000  18.2660000  48.8400000
 -26.7030000  18.8040000  48.7870000 -28.0920000  18.6580000  48.2070000
 -27.4680000  18.3850000  48.7530000 -32.1050000   4.1450000  39.4570000
 -33.0220000   3.9300000  39.6230000 -31.6300000   3.7570000  40.1920000
 -32.1610000   4.0680000  39.5720000 -24.5030000  16.8960000  43.6930000
 -24.8700000  17.4770000  44.3570000 -23.6110000  17.2190000  43.5580000
 -24.4350000  17.0120000  43.7600000 -26.3970000   9.3330000  48.6780000
 -26.6650000   9.9760000  49.3350000 -27.1960000   9.1510000  48.1820000
 -26.5340000   9.3920000  48.6980000 -34.5400000   0.5510000  39.3850000
 -34.5390000   1.2930000  39.9890000 -34.0360000   0.8550000  38.6320000
 -34.4750000   0.6850000  39.3670000 -33.6230000  12.5870000  39.6690000
 -33.5370000  12.5360000  38.7170000 -34.1770000  13.3550000  39.8180000
 -33.6830000  12.6790000  39.5670000 -33.0130000  11.9650000  45.6350000
 -33.1010000  12.7450000  46.1830000 -32.9420000  11.2410000  46.2570000
 -33.0160000  11.9720000  45.7840000 -31.8300000   0.6220000  44.2700000
 -32.2350000   0.2910000  45.0730000 -31.7220000  -0.1520000  43.7180000
 -31.8670000   0.4810000  44.3030000 -20.7440000  16.0810000  44.0100000
 -20.6740000  15.4520000  44.7270000 -20.6780000  15.5490000  43.2180000
 -20.7270000  15.9330000  44.0000000 -31.2860000   6.6680000  42.1570000
 -30.9130000   6.6030000  41.2780000 -32.1910000   6.3720000  42.0550000
 -31.3550000   6.6210000  42.0320000 -31.5870000  13.8250000  40.5910000
 -32.3200000  13.3360000  40.2140000 -30.9280000  13.8380000  39.8980000
 -31.5970000  13.7640000  40.4550000 -29.1410000   3.5650000  44.5410000
 -29.9930000   3.4270000  44.1300000 -29.0910000   4.5120000  44.6780000
 -29.2430000   3.6690000  44.5070000 -28.0960000   7.2360000  37.7800000
 -28.1150000   7.8860000  38.4820000 -27.7410000   6.4480000  38.1920000
 -28.0530000   7.2190000  37.9220000 -26.1350000  16.1150000  41.6500000
 -26.8200000  16.0430000  42.3150000 -25.3360000  16.2930000  42.1470000
 -26.1200000  16.1280000  41.8000000 -28.4230000   1.7390000  42.6320000
 -28.6480000   2.5240000  43.1320000 -27.5240000   1.8910000  42.3400000
 -28.3360000   1.8590000  42.6590000 -22.9960000   1.4590000  47.5030000
 -22.1250000   1.0660000  47.5590000 -23.0950000   1.6900000  46.5800000
 -22.8970000   1.4380000  47.3920000 -22.9710000   5.3240000  42.7500000
 -23.1920000   5.0740000  43.6480000 -22.1550000   4.8580000  42.5680000
 -22.8950000   5.2320000  42.8430000 -25.1250000  15.0870000  37.8970000
 -25.5250000  15.9550000  37.9470000 -25.6010000  14.5660000  38.5440000
 -25.2370000  15.1320000  37.9860000 -29.1680000   3.8740000  47.9180000
 -30.0200000   3.4430000  47.8300000 -29.0700000   4.0210000  48.8580000
 -29.2650000   3.8380000  48.0270000 -31.7460000  13.4080000  43.7530000
 -32.3820000  12.9530000  44.3050000 -32.2350000  14.1420000  43.3800000
 -31.8890000  13.4440000  43.7770000 -20.2800000   5.3480000  40.5870000
 -21.1030000   4.8610000  40.5380000 -20.5320000   6.2120000  40.9150000
 -20.4170000   5.3960000  40.6220000 -35.1930000   4.0290000  47.5320000
 -35.2870000   3.5620000  46.7020000 -34.3700000   3.7060000  47.8970000
 -35.1010000   3.9280000  47.4730000 -21.4880000  12.5400000  42.8550000
 -21.4660000  12.6560000  43.8050000 -21.3150000  13.4130000  42.5030000
 -21.4630000  12.6670000  42.9320000 -22.1130000  18.4800000  43.1620000
 -22.3780000  18.4450000  42.2430000 -21.4910000  17.7590000  43.2600000
 -22.0670000  18.3830000  43.0570000 -24.9390000  18.4760000  40.6720000
 -25.4550000  17.7910000  41.0980000 -25.4220000  19.2830000  40.8460000
 -25.0670000  18.4910000  40.7500000 -25.2030000  20.0190000  48.9730000
 -24.4270000  19.8630000  48.4340000 -25.2330000  20.9700000  49.0800000
 -25.1070000  20.1210000  48.9180000 -28.6330000  16.4310000  43.2020000
 -28.8700000  15.6180000  43.6470000 -29.4370000  16.7090000  42.7650000
 -28.7650000  16.3630000  43.2030000 -35.8360000   9.7860000  42.8170000
 -34.8800000   9.8180000  42.8430000 -36.1070000  10.7030000  42.8550000
 -35.7470000   9.9070000  42.8250000 -34.4760000   3.0760000  40.7870000
 -34.1680000   3.1410000  41.6920000 -35.3940000   2.8180000  40.8670000
 -34.5550000   3.0510000  40.9130000 -25.1670000   7.3370000  43.1720000
 -24.5470000   7.7810000  42.5930000 -25.9780000   7.8410000  43.0870000
 -25.1910000   7.4590000  43.0870000 -32.8750000  15.4730000  42.4030000
 -33.5760000  15.8710000  41.8860000 -32.4430000  14.8700000  41.7970000
 -32.9090000  15.4470000  42.2600000 -29.4560000   9.8000000  44.5440000
 -28.9420000   9.2000000  44.0050000 -29.7300000  10.4900000  43.9400000
 -29.4260000   9.8110000  44.3980000 -19.7620000  17.6590000  40.8330000
 -19.1740000  17.4820000  40.0980000 -20.3520000  18.3390000  40.5100000
 -19.7620000  17.7230000  40.6970000 -19.3990000   4.3650000  44.5890000
 -18.8170000   4.8500000  44.0030000 -19.9650000   5.0350000  44.9730000
 -19.3970000   4.5130000  44.5640000 -31.6800000   3.1840000  46.4550000
 -31.8590000   3.7740000  45.7230000 -31.1950000   2.4570000  46.0650000
 -31.6410000   3.1670000  46.3120000 -35.3940000  13.2810000  48.8370000
 -35.1350000  13.9740000  48.2300000 -36.2670000  13.5400000  49.1370000
 -35.4720000  13.4030000  48.7970000 -21.7070000  10.8710000  45.8180000
 -20.8530000  10.5300000  45.5480000 -21.6850000  10.8420000  46.7750000
 -21.5950000  10.8230000  45.9050000 -19.6300000   0.8970000  45.3270000
 -20.2260000   0.5470000  45.9880000 -18.9120000   0.2650000  45.2910000
 -19.6140000   0.7720000  45.4070000 -23.5600000  11.5420000  41.0330000
 -23.1650000  11.8830000  41.8350000 -23.0700000  11.9610000  40.3270000
 -23.4470000  11.6390000  41.0460000 -31.2550000   2.5690000  32.4540000
 -31.0260000   2.5410000  33.3830000 -31.8840000   1.8570000  32.3410000
 -31.3050000   2.4740000  32.5590000 -33.8550000  16.7550000  32.7140000
 -34.8100000  16.6870000  32.6820000 -33.6670000  17.0620000  33.6000000
 -33.9530000  16.7860000  32.8230000 -29.0900000  14.1990000  25.8770000
 -29.2640000  14.3600000  26.8050000 -29.8550000  13.7130000  25.5710000
 -29.2100000  14.1570000  25.9570000 -33.3390000   0.8550000  31.9600000
 -33.8990000   1.3030000  32.5940000 -33.4850000  -0.0760000  32.1270000
 -33.4280000   0.7930000  32.0620000 -32.5190000   9.0960000  21.2080000
 -32.6730000   9.5530000  22.0350000 -31.8080000   8.4860000  21.4000000
 -32.4480000   9.0760000  21.3380000 -29.1250000   4.3050000  31.8130000
 -29.7280000   3.6640000  32.1880000 -28.3350000   4.2360000  32.3510000
 -29.1010000   4.2150000  31.9300000 -28.5860000   0.7420000  38.0910000
 -27.6950000   0.5130000  37.8270000 -29.1090000   0.6210000  37.2980000
 -28.5380000   0.6980000  37.9570000 -22.3580000  15.2550000  19.3940000
 -23.2200000  15.5830000  19.1380000 -22.4550000  14.3030000  19.3930000
 -22.4810000  15.1750000  19.3610000 -35.6320000  15.3520000  26.1710000
 -35.5940000  16.2450000  25.8270000 -36.4320000  15.3310000  26.6970000
 -35.7300000  15.4640000  26.1940000 -30.9210000  17.1420000  22.8600000
 -31.7200000  16.6150000  22.8700000 -30.5780000  17.0390000  21.9730000
 -30.9800000  17.0610000  22.7480000 -26.7010000   4.1310000  33.0820000
 -26.5230000   3.2490000  33.4070000 -26.3830000   4.7110000  33.7730000
 -26.6370000   4.0920000  33.2120000 -27.0140000  12.1270000  25.3270000
 -27.4400000  11.5200000  24.7230000 -27.6760000  12.7940000  25.5050000
 -27.1530000  12.1350000  25.2730000 -21.2610000   2.7590000  24.5800000
 -21.1940000   1.8120000  24.4560000 -20.3920000   3.0240000  24.8810000
 -21.1410000   2.6720000  24.6030000 -20.1420000   7.0500000  26.4210000
 -20.9210000   7.1600000  26.9660000 -19.7980000   7.9360000  26.3120000
 -20.1980000   7.1770000  26.4770000 -29.0460000   3.1780000  20.5690000
 -29.3120000   2.7150000  21.3640000 -29.0300000   2.5010000  19.8930000
 -29.0780000   3.0320000  20.5850000 -28.8110000  10.3660000  33.8530000
 -28.9400000   9.5010000  34.2420000 -28.3680000  10.1910000  33.0220000
 -28.7710000  10.2330000  33.7960000 -25.9350000  11.3180000  20.8720000
 -25.1650000  11.3390000  21.4390000 -25.6160000  10.9510000  20.0480000
 -25.7960000  11.2740000  20.8390000 -20.2000000  10.9550000  22.6020000
 -20.5650000  11.5960000  23.2120000 -20.9650000  10.5330000  22.2100000
 -20.3440000  10.9830000  22.6300000 -22.2170000  12.5550000  19.6190000
 -22.1750000  12.4210000  18.6720000 -21.3320000  12.8220000  19.8620000
 -22.0980000  12.5720000  19.5290000 -21.8750000   2.9850000  21.7070000
 -21.7420000   2.8410000  22.6440000 -22.7420000   3.3840000  21.6470000
 -21.9680000   3.0170000  21.8200000 -25.2240000  14.7220000  26.2080000
 -25.0480000  15.5720000  25.8050000 -25.9840000  14.3850000  25.7340000
 -25.2980000  14.7880000  26.0960000 -25.4350000  18.0470000  27.4600000
 -24.8480000  18.7840000  27.2850000 -26.2160000  18.2330000  26.9410000
 -25.4590000  18.1650000  27.3710000 -33.1130000   5.3020000  25.9800000
 -33.5190000   5.3010000  25.1130000 -33.5980000   5.9650000  26.4710000
 -33.2260000   5.3870000  25.9320000 -34.9930000   1.6980000  33.9980000
 -34.7870000   2.5960000  34.2550000 -35.3500000   1.2970000  34.7910000
 -35.0120000   1.7610000  34.1320000 -33.6860000   2.4890000  24.6980000
 -34.4430000   2.4760000  25.2830000 -33.1530000   1.7450000  24.9790000
 -33.7140000   2.3920000  24.8090000 -26.6450000   6.1870000  34.9970000
 -26.0600000   6.5000000  35.6860000 -27.3710000   6.8120000  34.9970000
 -26.6630000   6.3070000  35.0850000 -29.0260000   6.6880000  24.5290000
 -29.8510000   6.6700000  24.0440000 -29.2760000   6.5020000  25.4340000
 -29.1630000   6.6620000  24.5830000 -31.9110000  16.3530000  29.1460000
 -32.1730000  15.9780000  29.9870000 -31.1800000  15.8080000  28.8570000
 -31.8510000  16.2350000  29.2160000 -33.6730000  14.5460000  27.8610000
 -34.3970000  14.8490000  27.3130000 -33.0800000  15.2960000  27.9090000
 -33.6900000  14.6810000  27.7970000 -34.2010000   8.3100000  19.1990000
 -34.8030000   9.0470000  19.1030000 -33.5710000   8.6000000  19.8600000
 -34.1970000   8.4410000  19.2710000 -29.7730000  16.7720000  20.4920000
 -29.3150000  15.9500000  20.6640000 -29.0750000  17.4120000  20.3530000
 -29.6250000  16.7490000  20.4960000 -31.0500000   7.2630000  29.4740000
 -30.1690000   7.5550000  29.7060000 -30.9650000   6.9290000  28.5810000
 -30.9260000   7.2580000  29.3890000 -35.0860000  15.0210000  38.1450000
 -34.6030000  15.5820000  37.5380000 -35.5280000  14.3850000  37.5840000
 -35.0800000  15.0120000  37.9960000 -31.4600000  16.7570000  36.9430000
 -30.8850000  16.6700000  37.7040000 -31.5010000  17.6990000  36.7820000
 -31.3910000  16.8660000  37.0190000 -26.7530000   3.0820000  27.6580000
 -27.7050000   3.0190000  27.7290000 -26.4250000   2.3540000  28.1860000
 -26.8340000   2.9810000  27.7350000 -21.6250000  11.0900000  29.7800000
 -21.1850000  11.5970000  30.4630000 -22.2960000  10.5930000  30.2460000
 -21.6530000  11.0910000  29.9270000 -20.4090000  12.8580000  32.0080000
 -21.1230000  13.4630000  31.8090000 -19.6930000  13.4210000  32.3050000
 -20.4090000  13.0070000  32.0210000 -31.1050000  10.6110000  36.8440000
 -31.2620000   9.6670000  36.8080000 -31.1930000  10.9030000  35.9370000
 -31.1370000  10.5270000  36.7230000 -26.8970000  13.9190000  20.9460000
 -26.5930000  13.0260000  21.1020000 -26.3700000  14.4590000  21.5350000
 -26.7910000  13.8740000  21.0410000 -24.2740000   4.4070000  21.5220000
 -24.1700000   4.7510000  22.4090000 -24.4050000   5.1830000  20.9770000
 -24.2780000   4.5500000  21.5660000 -21.6320000   5.2550000  28.8490000
 -20.7200000   5.2660000  29.1420000 -21.6320000   4.6700000  28.0910000
 -21.5150000   5.1810000  28.7900000 -23.7870000   9.5920000  30.7000000
 -24.6620000   9.3350000  30.4100000 -23.4350000   8.8090000  31.1240000
 -23.8550000   9.4590000  30.7170000 -34.0780000  16.5080000  35.8580000
 -34.3300000  17.4120000  36.0490000 -33.1730000  16.4430000  36.1610000
 -33.9940000  16.6160000  35.9210000 -32.0450000   1.5810000  19.5090000
 -31.7030000   1.5900000  20.4030000 -32.5300000   2.4030000  19.4310000
 -32.0640000   1.6880000  19.6130000 -29.4420000   6.0920000  27.1630000
 -29.3560000   5.3080000  27.7060000 -29.0030000   6.7790000  27.6630000
 -29.3750000   6.0800000  27.2960000 -20.7800000   3.7100000  36.5030000
 -21.6800000   3.3820000  36.4980000 -20.4550000   3.5330000  35.6210000
 -20.8550000   3.6450000  36.3900000 -20.7650000  14.8320000  22.4990000
 -20.6430000  15.7070000  22.1310000 -20.5550000  14.2380000  21.7780000
 -20.7220000  14.8680000  22.3590000 -22.3460000   0.2310000  21.3770000
 -22.2180000   1.1460000  21.1250000 -23.2950000   0.1360000  21.4620000
 -22.4510000   0.3360000  21.3560000 -26.3160000  14.1160000  35.6330000
 -25.7350000  13.9520000  36.3740000 -26.9100000  14.8020000  35.9410000
 -26.3180000  14.1830000  35.7670000 -30.0140000  14.5800000  28.3720000
 -30.4940000  13.7720000  28.5490000 -29.2850000  14.5660000  28.9910000
 -29.9820000  14.4750000  28.4740000 -16.6020000   7.4970000  26.7560000
 -16.5880000   7.1840000  27.6610000 -16.6520000   8.4500000  26.8330000
 -16.6060000   7.5790000  26.8820000 -27.2100000   5.4330000  20.6390000
 -27.8350000   4.7090000  20.6630000 -26.9910000   5.5920000  21.5570000
 -27.2610000   5.3610000  20.7590000 -30.4710000   7.0810000  32.7600000
 -31.3160000   6.7610000  33.0760000 -29.9980000   6.2900000  32.5000000
 -30.5200000   6.9390000  32.7670000 -33.5450000  12.2670000  37.0930000
 -32.7330000  11.7790000  36.9510000 -33.8140000  12.5440000  36.2170000
 -33.4760000  12.2400000  36.9620000 -34.6370000  16.8390000  22.2160000
 -35.2190000  17.3370000  22.7890000 -34.4080000  17.4500000  21.5160000
 -34.6820000  16.9810000  22.2000000 -20.7440000   2.9480000  33.9340000
 -21.6100000   2.7840000  33.5630000 -20.1610000   2.3560000  33.4570000
 -20.7800000   2.8510000  33.8250000 -31.2820000  11.3070000  34.1210000
 -30.4030000  10.9340000  34.0690000 -31.8200000  10.7260000  33.5840000
 -31.2380000  11.1850000  34.0460000 -22.2930000  15.0180000  32.4780000
 -22.6450000  14.9150000  33.3630000 -22.1450000  15.9600000  32.3880000
 -22.3200000  15.1250000  32.5800000 -20.1560000  16.7850000  34.3570000
 -19.9580000  16.3900000  35.2070000 -20.8280000  17.4400000  34.5480000
 -20.2170000  16.8180000  34.4900000 -22.9120000   4.1150000  26.2280000
 -22.2160000   3.7290000  25.6950000 -23.5220000   3.3930000  26.3830000
 -22.9010000   3.9730000  26.1790000 -24.8380000   9.5640000  33.7700000
 -25.3950000   9.1700000  33.0980000 -25.4150000  10.1740000  34.2300000
 -24.9830000   9.5920000  33.7430000 -20.9240000   8.8250000  36.9640000
 -21.7470000   9.1650000  36.6150000 -21.0690000   8.7690000  37.9090000
 -21.0470000   8.8610000  37.0410000 -27.0110000   5.5510000  23.3030000
 -27.8350000   5.8340000  23.6990000 -26.3340000   5.9370000  23.8580000
 -27.0300000   5.6360000  23.4250000 -34.0000000   9.1420000  31.3960000
 -34.3760000   9.0150000  32.2660000 -34.5630000   8.6310000  30.8140000
 -34.1190000   9.0610000  31.4330000 -24.9920000  10.6520000  26.8510000
 -24.4470000  11.1530000  27.4580000 -25.6860000  11.2590000  26.5940000
 -25.0110000  10.7930000  26.8960000 -22.2880000   7.8980000  23.0440000
 -22.3320000   8.5170000  23.7740000 -22.6550000   7.0870000  23.3960000
 -22.3400000   7.8740000  23.1830000 -27.5380000   8.7620000  23.5230000
 -28.2100000   8.0810000  23.5530000 -27.4600000   8.9790000  22.5940000
 -27.6150000   8.7030000  23.4080000 -33.8510000   3.6150000  37.4860000
 -34.0050000   3.8950000  36.5840000 -34.0890000   4.3750000  38.0170000
 -33.9020000   3.7480000  37.4390000 -26.3530000  17.7410000  32.6410000
 -26.9010000  17.6720000  31.8610000 -25.9880000  16.8640000  32.7570000
 -26.3750000  17.6200000  32.5560000 -31.9180000   7.7360000  36.5920000
 -32.0340000   7.4520000  35.6850000 -32.8100000   7.8390000  36.9250000
 -32.0480000   7.7130000  36.5180000 -32.8730000   6.0630000  31.4380000
 -33.4640000   5.3240000  31.2860000 -32.2620000   6.0350000  30.7030000
 -32.8700000   5.9650000  31.3240000 -31.4880000  12.2550000  29.4700000
 -31.5280000  11.3000000  29.4330000 -31.9430000  12.4830000  30.2800000
 -31.5510000  12.1620000  29.5690000 -23.5230000   8.9080000  36.1520000
 -24.2150000   8.2680000  36.3200000 -23.7310000   9.2640000  35.2890000
 -23.6380000   8.8710000  36.0630000 -35.5720000  12.4550000  25.4910000
 -34.8930000  12.1750000  26.1050000 -35.4750000  13.4050000  25.4420000
 -35.4730000  12.5410000  25.5640000 -30.1590000  11.1910000  20.5780000
 -30.5410000  10.8820000  19.7570000 -29.9190000  12.1020000  20.4030000
 -30.1760000  11.2680000  20.4510000 -31.3310000   1.4610000  22.2600000
 -31.0860000   0.5860000  22.5610000 -31.5460000   1.9380000  23.0610000
 -31.3280000   1.4100000  22.4010000 -26.0990000   3.2100000  24.7980000
 -26.3930000   3.9250000  24.2340000 -26.3700000   3.4710000  25.6780000
 -26.1710000   3.3350000  24.8380000 -27.6450000  14.8660000  29.8800000
 -27.7100000  14.3460000  30.6820000 -27.1010000  15.6150000  30.1230000
 -27.5850000  14.8950000  30.0140000 -22.1460000  13.7620000  26.4990000
 -23.0610000  13.7720000  26.2160000 -22.0240000  12.8940000  26.8840000
 -22.2480000  13.6520000  26.5120000 -34.4930000   5.7260000  20.2940000
 -35.4180000   5.4830000  20.3320000 -34.4970000   6.6460000  20.0290000
 -34.6110000   5.8130000  20.2650000 -32.5240000  10.0790000  23.5830000
 -31.7010000  10.5650000  23.5450000 -32.4730000   9.5840000  24.4000000
 -32.4120000  10.0780000  23.6820000 -35.8330000  17.9540000  27.6590000
 -36.3750000  18.3770000  28.3260000 -34.9350000  18.1510000  27.9210000
 -35.7890000  18.0340000  27.7780000 -30.2300000  11.7160000  23.5850000
 -30.7530000  12.4190000  23.9710000 -30.2170000  11.9120000  22.6490000
 -30.2940000  11.8310000  23.5150000 -23.1860000   6.5830000  19.7490000
 -22.7090000   6.2300000  19.0000000 -22.6850000   7.3550000  20.0120000
 -23.0610000   6.6370000  19.6870000 -34.2920000  12.0190000  34.5790000
 -34.3300000  12.3360000  33.6780000 -35.1650000  11.6600000  34.7440000
 -34.4090000  12.0130000  34.4860000 -30.3850000  13.7590000  33.1540000
 -31.1670000  14.1650000  32.7850000 -30.6720000  12.8880000  33.4280000
 -30.5210000  13.6990000  33.1420000 -21.3340000  -2.3370000  29.1480000
 -21.1890000  -1.9320000  30.0030000 -22.2800000  -2.2690000  29.0090000
 -21.4360000  -2.2770000  29.2400000 -31.3590000   9.7160000  31.6330000
 -31.0340000   8.9130000  32.0400000 -32.2270000   9.4840000  31.3070000
 -31.4280000   9.5840000  31.6430000 -35.7420000  10.6500000  37.6020000
 -34.9400000  11.1600000  37.4920000 -36.1920000  11.0680000  38.3370000
 -35.6970000  10.7690000  37.6820000 -25.2460000   7.7980000  26.8620000
 -24.7480000   7.5910000  26.0710000 -25.0620000   8.7230000  27.0260000
 -25.1590000   7.8900000  26.7820000 -30.6210000   6.5440000  20.6030000
 -31.1030000   5.7270000  20.4720000 -30.1870000   6.7030000  19.7650000
 -30.6280000   6.4600000  20.4790000 -20.5580000  18.5700000  28.9300000
 -20.7050000  17.6270000  29.0110000 -19.9050000  18.7680000  29.6010000
 -20.4940000  18.4740000  29.0260000 -19.2250000  14.8480000  27.7160000
 -20.0700000  15.2610000  27.9000000 -19.3570000  13.9260000  27.9340000
 -19.3500000  14.7830000  27.7670000 -27.9250000   8.3940000  27.4850000
 -28.3320000   9.1540000  27.0690000 -27.0640000   8.3290000  27.0750000
 -27.8670000   8.4830000  27.3800000 -23.3880000   9.6330000  24.9670000
 -22.7150000  10.0450000  25.5070000 -24.1980000  10.0790000  25.2130000
 -23.4050000   9.7430000  25.0670000 -35.2350000  10.1240000  28.4700000
 -34.2780000  10.1080000  28.4510000 -35.4800000   9.3100000  28.9100000
 -35.1430000  10.0180000  28.5240000 -24.9310000   4.1340000  31.0090000
 -25.3850000   4.5760000  30.2910000 -25.4730000   4.3090000  31.7780000
 -25.0580000   4.2130000  31.0150000 -19.7660000   9.0620000  29.9530000
 -20.1550000   8.5880000  30.6890000 -20.3020000   9.8510000  29.8670000
 -19.8850000   9.1020000  30.0360000 -26.3920000   5.6100000  28.8190000
 -25.7660000   6.0600000  28.2520000 -26.5340000   4.7630000  28.3950000
 -26.3300000   5.5590000  28.6920000 -27.8570000  13.4870000  32.3180000
 -27.4650000  14.3080000  32.6140000 -28.7700000  13.5420000  32.6000000
 -27.9230000  13.5990000  32.3920000 -26.3680000   2.3550000  21.5750000
 -27.1280000   2.6030000  21.0470000 -25.8140000   3.1350000  21.5760000
 -26.3950000   2.4870000  21.5080000 -33.8330000   5.6480000  23.2920000
 -33.9230000   5.3770000  22.3790000 -34.7320000   5.8050000  23.5850000
 -33.9610000   5.6340000  23.2130000 -24.2460000   1.5390000  26.0880000
 -24.9090000   1.9450000  25.5280000 -23.5510000   1.2760000  25.4850000
 -24.2420000   1.5580000  25.9390000 -22.6340000   6.7710000  31.4670000
 -22.8980000   6.1190000  32.1170000 -22.4150000   6.2580000  30.6890000
 -22.6400000   6.6220000  31.4510000 -31.8870000   8.5640000  25.6920000
 -31.6990000   7.8120000  25.1300000 -31.0320000   8.9550000  25.8620000
 -31.7550000   8.5180000  25.6420000 -30.2310000   3.4240000  34.9320000
 -29.3100000   3.5000000  35.1760000 -30.6830000   4.0410000  35.5070000
 -30.1710000   3.5120000  35.0360000 -33.2410000   0.4340000  27.8510000
 -33.0700000   1.3550000  28.0500000 -32.6740000  -0.0500000  28.4520000
 -33.1470000   0.4900000  27.9530000 -29.4370000  13.7710000  19.9750000
 -28.5930000  13.7330000  20.4260000 -29.2150000  13.9760000  19.0670000
 -29.3000000  13.7920000  19.9170000 -32.3870000   9.5610000  28.2440000
 -32.1300000   9.1430000  27.4220000 -32.3030000   8.8690000  28.9000000
 -32.3420000   9.4190000  28.2230000 -25.0750000  14.0160000  28.7030000
 -24.9760000  14.2630000  27.7830000 -25.9280000  14.3660000  28.9550000
 -25.1710000  14.0920000  28.6180000 -27.6850000  18.4300000  26.0420000
 -27.8690000  17.6030000  25.5960000 -27.9960000  19.1030000  25.4370000
 -27.7480000  18.4100000  25.9070000 -21.5800000   0.3000000  37.6670000
 -22.1210000  -0.2150000  38.2660000 -22.0450000   1.1330000  37.5800000
 -21.7090000   0.3410000  37.7330000 -26.0960000  17.6650000  19.1320000
 -25.9390000  18.5040000  18.6990000 -25.8350000  17.8120000  20.0410000
 -26.0420000  17.7910000  19.1930000 -23.9860000  16.4420000  29.2420000
 -24.5300000  17.0420000  28.7310000 -24.3780000  15.5810000  29.0960000
 -24.1050000  16.4090000  29.1580000 -20.2110000   7.8510000  32.8650000
 -21.1070000   7.5260000  32.7780000 -20.3110000   8.7460000  33.1900000
 -20.3390000   7.9240000  32.8960000 -29.8950000  18.8100000  28.2150000
 -29.9280000  18.1230000  28.8800000 -29.4180000  18.4150000  27.4850000
 -29.8390000  18.6720000  28.2070000 -28.0150000   9.5380000  20.9030000
 -27.2850000  10.1580000  20.8920000 -28.7970000  10.0890000  20.8720000
 -28.0220000   9.6880000  20.8970000 -28.3830000   6.9190000  30.0190000
 -28.8320000   6.1650000  30.4010000 -27.6610000   6.5390000  29.5190000
 -28.3480000   6.7740000  30.0050000 -26.8480000  11.0430000  31.7310000
 -27.1250000  11.8670000  32.1330000 -25.8970000  11.0300000  31.8400000
 -26.7610000  11.1470000  31.7960000 -31.3600000   3.6560000  24.0020000
 -31.5090000   4.5990000  23.9240000 -32.1530000   3.3240000  24.4260000
 -31.4800000   3.7340000  24.0460000 -27.4920000  18.2660000  29.9800000
 -26.7030000  18.8040000  29.9260000 -28.0920000  18.6580000  29.3460000
 -27.4680000  18.3850000  29.8920000 -27.7100000   4.0000000  36.4210000
 -28.1750000   4.5980000  37.0050000 -27.1150000   4.5640000  35.9260000
 -27.6930000   4.1480000  36.4320000 -32.1050000   4.1450000  20.5970000
 -33.0220000   3.9300000  20.7630000 -31.6300000   3.7570000  21.3320000
 -32.1610000   4.0680000  20.7120000 -35.4630000   8.8910000  33.8680000
 -36.1420000   9.5300000  34.0880000 -35.8720000   8.0420000  34.0320000
 -35.6030000   8.8640000  33.9170000 -24.5030000  16.8960000  24.8320000
 -24.8700000  17.4770000  25.4970000 -23.6110000  17.2190000  24.6980000
 -24.4350000  17.0120000  24.9000000 -26.3970000   9.3330000  29.8170000
 -26.6650000   9.9760000  30.4740000 -27.1960000   9.1510000  29.3210000
 -26.5340000   9.3920000  29.8370000 -26.4200000   7.6670000  32.3800000
 -26.5840000   7.9760000  31.4880000 -27.2820000   7.4030000  32.7020000
 -26.5510000   7.6730000  32.3070000 -26.1980000   1.8880000  36.5170000
 -26.2010000   1.5980000  35.6050000 -26.8700000   2.5690000  36.5540000
 -26.2850000   1.9380000  36.4050000 -34.5400000   0.5510000  20.5250000
 -34.5390000   1.2930000  21.1290000 -34.0360000   0.8550000  19.7710000
 -34.4750000   0.6850000  20.5060000 -33.6230000  12.5870000  20.8090000
 -33.5370000  12.5360000  19.8570000 -34.1770000  13.3550000  20.9580000
 -33.6830000  12.6790000  20.7060000 -26.4880000  11.3300000  34.9160000
 -27.3060000  11.1740000  34.4440000 -26.4400000  12.2820000  35.0050000
 -26.5860000  11.4320000  34.8670000 -22.1380000   6.0260000  36.1460000
 -21.4250000   5.3940000  36.2420000 -21.6980000   6.8630000  36.0000000
 -21.9910000   6.0520000  36.1390000 -20.6650000  17.3030000  31.7150000
 -20.3840000  17.2070000  32.6250000 -21.4460000  17.8540000  31.7640000
 -20.7300000  17.3610000  31.8380000 -33.0130000  11.9650000  26.7740000
 -33.1010000  12.7450000  27.3230000 -32.9420000  11.2410000  27.3970000
 -33.0160000  11.9720000  26.9240000 -32.9120000   7.1060000  33.9580000
 -33.0030000   6.9860000  33.0130000 -33.6350000   7.6840000  34.1960000
 -33.0160000   7.1650000  33.8670000 -31.8300000   0.6220000  25.4100000
 -32.2350000   0.2910000  26.2120000 -31.7220000  -0.1520000  24.8580000
 -31.8670000   0.4810000  25.4420000 -20.7440000  16.0810000  25.1500000
 -20.6740000  15.4520000  25.8670000 -20.6780000  15.5490000  24.3570000
 -20.7270000  15.9330000  25.1400000 -31.2860000   6.6680000  23.2960000
 -30.9130000   6.6030000  22.4170000 -32.1910000   6.3720000  23.1950000
 -31.3550000   6.6210000  23.1710000 -31.5870000  13.8250000  21.7300000
 -32.3200000  13.3360000  21.3540000 -30.9280000  13.8380000  21.0380000
 -31.5970000  13.7640000  21.5940000 -29.1410000   3.5650000  25.6810000
 -29.9930000   3.4270000  25.2690000 -29.0910000   4.5120000  25.8170000
 -29.2430000   3.6690000  25.6460000 -34.2690000   4.2330000  34.8720000
 -33.4780000   4.2660000  34.3350000 -34.6300000   5.1190000  34.8240000
 -34.2140000   4.3500000  34.7970000 -28.0960000   7.2360000  18.9200000
 -28.1150000   7.8860000  19.6220000 -27.7410000   6.4480000  19.3320000
 -28.0530000   7.2190000  19.0620000 -23.1130000   2.4860000  36.3410000
 -23.0520000   2.1390000  35.4510000 -24.0530000   2.5340000  36.5160000
 -23.2260000   2.4480000  36.2490000 -32.7260000  14.5340000  31.6990000
 -33.2960000  15.2210000  32.0460000 -33.1780000  13.7180000  31.9130000
 -32.8570000  14.5180000  31.7710000 -26.1350000  16.1150000  22.7900000
 -26.8200000  16.0430000  23.4550000 -25.3360000  16.2930000  23.2870000
 -26.1200000  16.1280000  22.9390000 -28.4230000   1.7390000  23.7720000
 -28.6480000   2.5240000  24.2710000 -27.5240000   1.8910000  23.4800000
 -28.3360000   1.8590000  23.7990000 -22.9960000   1.4590000  28.6420000
 -22.1250000   1.0660000  28.6990000 -23.0950000   1.6900000  27.7190000
 -22.8970000   1.4380000  28.5310000 -26.0890000   1.7260000  33.7760000
 -26.3480000   0.9500000  33.2790000 -25.1320000   1.7310000  33.7280000
 -26.0000000   1.6270000  33.7070000 -22.9710000   5.3240000  23.8900000
 -23.1920000   5.0740000  24.7880000 -22.1550000   4.8580000  23.7070000
 -22.8950000   5.2320000  23.9820000 -25.1250000  15.0870000  19.0370000
 -25.5250000  15.9550000  19.0870000 -25.6010000  14.5660000  19.6840000
 -25.2370000  15.1320000  19.1260000 -29.1680000   3.8740000  29.0570000
 -30.0200000   3.4430000  28.9700000 -29.0700000   4.0210000  29.9980000
 -29.2650000   3.8380000  29.1660000 -30.5370000   0.8950000  36.2080000
 -31.0900000   1.2060000  36.9240000 -30.4760000   1.6410000  35.6110000
 -30.6010000   1.0300000  36.2230000 -31.7460000  13.4080000  24.8930000
 -32.3820000  12.9530000  25.4440000 -32.2350000  14.1420000  24.5200000
 -31.8890000  13.4440000  24.9160000 -25.8680000  15.0790000  33.0980000
 -26.0710000  14.7690000  33.9800000 -25.3550000  14.3710000  32.7080000
 -25.8280000  14.9480000  33.1610000 -20.2800000   5.3480000  21.7260000
 -21.1030000   4.8610000  21.6780000 -20.5320000   6.2120000  22.0540000
 -20.4170000   5.3960000  21.7620000 -23.2230000  12.6810000  35.7450000
 -23.8630000  12.1480000  36.2170000 -23.2610000  12.3580000  34.8440000
 -23.3100000  12.5710000  35.6900000 -29.4560000  15.0490000  35.8800000
 -29.8430000  14.6840000  35.0840000 -30.1050000  15.6780000  36.1950000
 -29.5900000  15.0820000  35.8190000 -35.1930000   4.0290000  28.6710000
 -35.2870000   3.5620000  27.8410000 -34.3700000   3.7060000  29.0360000
 -35.1010000   3.9280000  28.6120000 -20.5560000  10.5180000  33.5620000
 -21.4470000  10.7340000  33.8400000 -20.2800000  11.2710000  33.0410000
 -20.6350000  10.6420000  33.5320000 -21.4880000  12.5400000  23.9940000
 -21.4660000  12.6560000  24.9440000 -21.3150000  13.4130000  23.6430000
 -21.4630000  12.6670000  24.0710000 -22.1130000  18.4800000  24.3010000
 -22.3780000  18.4450000  23.3820000 -21.4910000  17.7590000  24.4000000
 -22.0670000  18.3830000  24.1960000 -24.9390000  18.4760000  21.8120000
 -25.4550000  17.7910000  22.2380000 -25.4220000  19.2830000  21.9860000
 -25.0670000  18.4910000  21.8890000 -33.0300000   3.2870000  29.9270000
 -32.5780000   2.7080000  30.5410000 -32.4670000   3.3020000  29.1540000
 -32.9000000   3.2150000  29.9070000 -25.2030000  20.0190000  30.1130000
 -24.4270000  19.8630000  29.5740000 -25.2330000  20.9700000  30.2190000
 -25.1070000  20.1210000  30.0580000 -28.6330000  16.4310000  24.3420000
 -28.8700000  15.6180000  24.7860000 -29.4370000  16.7090000  23.9050000
 -28.7650000  16.3630000  24.3430000 -23.4390000  15.8510000  35.6490000
 -23.1700000  14.9470000  35.8090000 -24.3910000  15.8380000  35.7500000
 -23.5260000  15.7340000  35.6830000 -23.1300000  11.5570000  33.3460000
 -23.7390000  10.8210000  33.4020000 -23.5610000  12.1810000  32.7630000
 -23.2620000  11.5420000  33.2790000 -34.0320000  12.1450000  31.7710000
 -34.4920000  12.4890000  31.0060000 -33.9510000  11.2070000  31.5990000
 -34.0800000  12.0690000  31.6510000 -35.8360000   9.7860000  23.9560000
 -34.8800000   9.8180000  23.9830000 -36.1070000  10.7030000  23.9940000
 -35.7470000   9.9070000  23.9640000 -30.9950000   5.2450000  36.8990000
 -31.7600000   4.8480000  37.3170000 -31.2500000   6.1560000  36.7510000
 -31.1260000   5.3110000  36.9340000 -34.4760000   3.0760000  21.9270000
 -34.1680000   3.1410000  22.8310000 -35.3940000   2.8180000  22.0060000
 -34.5550000   3.0510000  22.0530000 -25.1670000   7.3370000  24.3110000
 -24.5470000   7.7810000  23.7320000 -25.9780000   7.8410000  24.2260000
 -25.1910000   7.4590000  24.2260000 -32.8750000  15.4730000  23.5430000
 -33.5760000  15.8710000  23.0260000 -32.4430000  14.8700000  22.9370000
 -32.9090000  15.4470000  23.3990000 -24.2740000  13.4160000  31.3650000
 -24.4470000  13.3390000  30.4270000 -23.4910000  13.9630000  31.4200000
 -24.1960000  13.4760000  31.2520000 -29.4560000   9.8000000  25.6840000
 -28.9420000   9.2000000  25.1440000 -29.7300000  10.4900000  25.0800000
 -29.4260000   9.8110000  25.5380000 -22.4280000  18.3670000  34.9750000
 -22.0200000  18.5390000  35.8230000 -22.6970000  17.4500000  35.0200000
 -22.4100000  18.2720000  35.0890000 -23.4150000   3.0290000  33.2430000
 -23.7010000   3.8550000  33.6350000 -23.6370000   3.1130000  32.3160000
 -23.4800000   3.1460000  33.1750000 -19.7620000  17.6590000  21.9730000
 -19.1740000  17.4820000  21.2380000 -20.3520000  18.3390000  21.6490000
 -19.7620000  17.7230000  21.8370000 -19.9210000  16.0140000  36.9680000
 -20.6940000  16.0450000  37.5320000 -19.3040000  16.6240000  37.3740000
 -19.9410000  16.0960000  37.0930000 -19.3990000   4.3650000  25.7290000
 -18.8170000   4.8500000  25.1430000 -19.9650000   5.0350000  26.1120000
 -19.3970000   4.5130000  25.7030000 -25.0200000  11.1410000  37.0370000
 -25.8310000  11.1790000  36.5300000 -24.6560000  10.2780000  36.8420000
 -25.0780000  11.0360000  36.9470000 -31.6800000   3.1840000  27.5950000
 -31.8590000   3.7740000  26.8630000 -31.1950000   2.4570000  27.2050000
 -31.6410000   3.1670000  27.4520000 -35.3940000  13.2810000  29.9770000
 -35.1350000  13.9740000  29.3690000 -36.2670000  13.5400000  30.2760000
 -35.4720000  13.4030000  29.9370000 -21.7070000  10.8710000  26.9580000
 -20.8530000  10.5300000  26.6880000 -21.6850000  10.8420000  27.9140000
 -21.5950000  10.8230000  27.0450000 -28.7760000   7.7820000  34.8630000
 -29.5300000   7.4520000  34.3740000 -28.9780000   7.5840000  35.7770000
 -28.8980000   7.7140000  34.9170000 -25.2260000   7.1050000  36.9320000
 -26.0100000   7.0660000  37.4800000 -24.5900000   6.5540000  37.3860000
 -25.2450000   7.0300000  37.0600000 -19.6300000   0.8970000  26.4660000
 -20.2260000   0.5470000  27.1280000 -18.9120000   0.2650000  26.4310000
 -19.6140000   0.7720000  26.5460000 -23.5600000  11.5420000  22.1730000
 -23.1650000  11.8830000  22.9750000 -23.0700000  11.9610000  21.4660000
 -23.4470000  11.6390000  22.1850000 -23.8320000   5.6280000  34.1350000
 -23.1380000   5.8220000  34.7670000 -24.4670000   6.3340000  34.2530000
 -23.8250000   5.7430000  34.2310000 -23.3660000  17.8980000  31.6100000
 -23.8400000  18.7310000  31.6030000 -23.8970000  17.3170000  31.0660000
 -23.4950000  17.9300000  31.5400000 -31.2550000   2.5690000  13.5940000
 -31.0260000   2.5410000  14.5230000 -31.8840000   1.8570000  13.4810000
 -31.3050000   2.4740000  13.6990000 -33.8550000  16.7550000  13.8540000
 -34.8100000  16.6870000  13.8220000 -33.6670000  17.0620000  14.7400000
 -33.9530000  16.7860000  13.9630000 -29.0900000  14.1990000   7.0170000
 -29.2640000  14.3600000   7.9450000 -29.8550000  13.7130000   6.7110000
 -29.2100000  14.1570000   7.0970000 -33.3390000   0.8550000  13.1000000
 -33.8990000   1.3030000  13.7340000 -33.4850000  -0.0760000  13.2670000
 -33.4280000   0.7930000  13.2020000 -32.5190000   9.0960000   2.3480000
 -32.6730000   9.5530000   3.1750000 -31.8080000   8.4860000   2.5400000
 -32.4480000   9.0760000   2.4780000 -29.1250000   4.3050000  12.9530000
 -29.7280000   3.6640000  13.3280000 -28.3350000   4.2360000  13.4910000
 -29.1010000   4.2150000  13.0700000 -28.5860000   0.7420000  19.2310000
 -27.6950000   0.5130000  18.9670000 -29.1090000   0.6210000  18.4380000
 -28.5380000   0.6980000  19.0960000 -22.3580000  15.2550000   0.5340000
 -23.2200000  15.5830000   0.2780000 -22.4550000  14.3030000   0.5330000
 -22.4810000  15.1750000   0.5010000 -35.6320000  15.3520000   7.3110000
 -35.5940000  16.2450000   6.9670000 -36.4320000  15.3310000   7.8370000
 -35.7300000  15.4640000   7.3340000 -30.9210000  17.1420000   4.0000000
 -31.7200000  16.6150000   4.0100000 -30.5780000  17.0390000   3.1130000
 -30.9800000  17.0610000   3.8880000 -26.7010000   4.1310000  14.2210000
 -26.5230000   3.2490000  14.5470000 -26.3830000   4.7110000  14.9130000
 -26.6370000   4.0920000  14.3520000 -27.0140000  12.1270000   6.4670000
 -27.4400000  11.5200000   5.8630000 -27.6760000  12.7940000   6.6450000
 -27.1530000  12.1350000   6.4130000 -20.1420000   7.0500000   7.5610000
 -20.9210000   7.1600000   8.1060000 -19.7980000   7.9360000   7.4520000
 -20.1980000   7.1770000   7.6170000 -29.0460000   3.1780000   1.7090000
 -29.3120000   2.7150000   2.5040000 -29.0300000   2.5010000   1.0330000
 -29.0780000   3.0320000   1.7250000 -28.8110000  10.3660000  14.9930000
 -28.9400000   9.5010000  15.3820000 -28.3680000  10.1910000  14.1620000
 -28.7710000  10.2330000  14.9360000 -25.9350000  11.3180000   2.0120000
 -25.1650000  11.3390000   2.5790000 -25.6160000  10.9510000   1.1880000
 -25.7960000  11.2740000   1.9790000 -20.2000000  10.9550000   3.7420000
 -20.5650000  11.5960000   4.3520000 -20.9650000  10.5330000   3.3500000
 -20.3440000  10.9830000   3.7700000 -22.2170000  12.5550000   0.7590000
 -22.1750000  12.4210000  -0.1880000 -21.3320000  12.8220000   1.0020000
 -22.0980000  12.5720000   0.6690000 -21.8750000   2.9850000   2.8470000
 -21.7420000   2.8410000   3.7840000 -22.7420000   3.3840000   2.7870000
 -21.9680000   3.0170000   2.9600000 -25.2240000  14.7220000   7.3480000
 -25.0480000  15.5720000   6.9450000 -25.9840000  14.3850000   6.8740000
 -25.2980000  14.7880000   7.2360000 -25.4350000  18.0470000   8.6000000
 -24.8480000  18.7840000   8.4250000 -26.2160000  18.2330000   8.0810000
 -25.4590000  18.1650000   8.5110000 -33.1130000   5.3020000   7.1200000
 -33.5190000   5.3010000   6.2530000 -33.5980000   5.9650000   7.6110000
 -33.2260000   5.3870000   7.0720000 -34.9930000   1.6980000  15.1380000
 -34.7870000   2.5960000  15.3950000 -35.3500000   1.2970000  15.9310000
 -35.0120000   1.7610000  15.2720000 -33.6860000   2.4890000   5.8380000
 -34.4430000   2.4760000   6.4230000 -33.1530000   1.7450000   6.1190000
 -33.7140000   2.3920000   5.9490000 -26.6450000   6.1870000  16.1370000
 -26.0600000   6.5000000  16.8260000 -27.3710000   6.8120000  16.1370000
 -26.6630000   6.3070000  16.2250000 -29.0260000   6.6880000   5.6690000
 -29.8510000   6.6700000   5.1840000 -29.2760000   6.5020000   6.5740000
 -29.1630000   6.6620000   5.7230000 -31.9110000  16.3530000  10.2860000
 -32.1730000  15.9780000  11.1270000 -31.1800000  15.8080000   9.9970000
 -31.8510000  16.2350000  10.3560000 -33.6730000  14.5460000   9.0010000
 -34.3970000  14.8490000   8.4530000 -33.0800000  15.2960000   9.0490000
 -33.6900000  14.6810000   8.9370000 -34.2010000   8.3100000   0.3390000
 -34.8030000   9.0470000   0.2430000 -33.5710000   8.6000000   1.0000000
 -34.1970000   8.4410000   0.4110000 -29.7730000  16.7720000   1.6320000
 -29.3150000  15.9500000   1.8040000 -29.0750000  17.4120000   1.4930000
 -29.6250000  16.7490000   1.6360000 -31.0500000   7.2630000  10.6140000
 -30.1690000   7.5550000  10.8460000 -30.9650000   6.9290000   9.7210000
 -30.9260000   7.2580000  10.5290000 -35.0860000  15.0210000  19.2850000
 -34.6030000  15.5820000  18.6780000 -35.5280000  14.3850000  18.7240000
 -35.0800000  15.0120000  19.1360000 -31.4600000  16.7570000  18.0830000
 -30.8850000  16.6700000  18.8440000 -31.5010000  17.6990000  17.9210000
 -31.3910000  16.8660000  18.1590000 -26.7530000   3.0820000   8.7980000
 -27.7050000   3.0190000   8.8690000 -26.4250000   2.3540000   9.3260000
 -26.8340000   2.9810000   8.8750000 -21.6250000  11.0900000  10.9200000
 -21.1850000  11.5970000  11.6030000 -22.2960000  10.5930000  11.3860000
 -21.6530000  11.0910000  11.0670000 -20.4090000  12.8580000  13.1480000
 -21.1230000  13.4630000  12.9490000 -19.6930000  13.4210000  13.4450000
 -20.4090000  13.0070000  13.1610000 -31.1050000  10.6110000  17.9840000
 -31.2620000   9.6670000  17.9480000 -31.1930000  10.9030000  17.0770000
 -31.1370000  10.5270000  17.8630000 -26.8970000  13.9190000   2.0860000
 -26.5930000  13.0260000   2.2420000 -26.3700000  14.4590000   2.6750000
 -26.7910000  13.8740000   2.1810000 -21.6320000   5.2550000   9.9890000
 -20.7200000   5.2660000  10.2820000 -21.6320000   4.6700000   9.2310000
 -21.5150000   5.1810000   9.9300000 -23.7870000   9.5920000  11.8400000
 -24.6620000   9.3350000  11.5500000 -23.4350000   8.8090000  12.2640000
 -23.8550000   9.4590000  11.8570000 -34.0780000  16.5080000  16.9980000
 -34.3300000  17.4120000  17.1890000 -33.1730000  16.4430000  17.3010000
 -33.9940000  16.6160000  17.0610000 -32.0450000   1.5810000   0.6490000
 -31.7030000   1.5900000   1.5430000 -32.5300000   2.4030000   0.5710000
 -32.0640000   1.6880000   0.7530000 -29.4420000   6.0920000   8.3030000
 -29.3560000   5.3080000   8.8460000 -29.0030000   6.7790000   8.8030000
 -29.3750000   6.0800000   8.4360000 -20.7650000  14.8320000   3.6390000
 -20.6430000  15.7070000   3.2710000 -20.5550000  14.2380000   2.9180000
 -20.7220000  14.8680000   3.4990000 -26.3160000  14.1160000  16.7730000
 -25.7350000  13.9520000  17.5140000 -26.9100000  14.8020000  17.0810000
 -26.3180000  14.1830000  16.9070000 -30.0140000  14.5800000   9.5120000
 -30.4940000  13.7720000   9.6890000 -29.2850000  14.5660000  10.1310000
 -29.9820000  14.4750000   9.6140000 -27.2100000   5.4330000   1.7790000
 -27.8350000   4.7090000   1.8030000 -26.9910000   5.5920000   2.6970000
 -27.2610000   5.3610000   1.8990000 -30.4710000   7.0810000  13.8990000
 -31.3160000   6.7610000  14.2160000 -29.9980000   6.2900000  13.6400000
 -30.5200000   6.9390000  13.9070000 -33.5450000  12.2670000  18.2330000
 -32.7330000  11.7790000  18.0910000 -33.8140000  12.5440000  17.3570000
 -33.4760000  12.2400000  18.1020000 -34.6370000  16.8390000   3.3560000
 -35.2190000  17.3370000   3.9290000 -34.4080000  17.4500000   2.6560000
 -34.6820000  16.9810000   3.3400000 -21.0370000   8.3980000   1.7800000
 -21.4940000   8.1570000   2.5860000 -20.1110000   8.2580000   1.9790000
 -20.9770000   8.3490000   1.9090000 -31.2820000  11.3070000  15.2610000
 -30.4030000  10.9340000  15.2090000 -31.8200000  10.7260000  14.7240000
 -31.2380000  11.1850000  15.1860000 -22.2930000  15.0180000  13.6180000
 -22.6450000  14.9150000  14.5030000 -22.1450000  15.9600000  13.5280000
 -22.3200000  15.1250000  13.7200000 -20.1560000  16.7850000  15.4970000
 -19.9580000  16.3900000  16.3470000 -20.8280000  17.4400000  15.6880000
 -20.2170000  16.8180000  15.6300000 -22.9120000   4.1150000   7.3680000
 -22.2160000   3.7290000   6.8350000 -23.5220000   3.3930000   7.5230000
 -22.9010000   3.9730000   7.3190000 -24.8380000   9.5640000  14.9100000
 -25.3950000   9.1700000  14.2380000 -25.4150000  10.1740000  15.3700000
 -24.9830000   9.5920000  14.8830000 -34.0000000   9.1420000  12.5360000
 -34.3760000   9.0150000  13.4060000 -34.5630000   8.6310000  11.9540000
 -34.1190000   9.0610000  12.5730000 -24.9920000  10.6520000   7.9910000
 -24.4470000  11.1530000   8.5980000 -25.6860000  11.2590000   7.7340000
 -25.0110000  10.7930000   8.0360000 -22.2880000   7.8980000   4.1840000
 -22.3320000   8.5170000   4.9140000 -22.6550000   7.0870000   4.5360000
 -22.3400000   7.8740000   4.3230000 -27.5380000   8.7620000   4.6630000
 -28.2100000   8.0810000   4.6930000 -27.4600000   8.9790000   3.7340000
 -27.6150000   8.7030000   4.5480000 -33.8510000   3.6150000  18.6260000
 -34.0050000   3.8950000  17.7240000 -34.0890000   4.3750000  19.1570000
 -33.9020000   3.7480000  18.5790000 -26.3530000  17.7410000  13.7810000
 -26.9010000  17.6720000  13.0010000 -25.9880000  16.8640000  13.8970000
 -26.3750000  17.6200000  13.6960000 -31.9180000   7.7360000  17.7320000
 -32.0340000   7.4520000  16.8250000 -32.8100000   7.8390000  18.0650000
 -32.0480000   7.7130000  17.6590000 -32.8730000   6.0630000  12.5780000
 -33.4640000   5.3240000  12.4260000 -32.2620000   6.0350000  11.8430000
 -32.8700000   5.9650000  12.4640000 -31.4880000  12.2550000  10.6100000
 -31.5280000  11.3000000  10.5730000 -31.9430000  12.4830000  11.4200000
 -31.5510000  12.1620000  10.7090000 -35.5720000  12.4550000   6.6310000
 -34.8930000  12.1750000   7.2450000 -35.4750000  13.4050000   6.5820000
 -35.4730000  12.5410000   6.7040000 -30.1590000  11.1910000   1.7180000
 -30.5410000  10.8820000   0.8970000 -29.9190000  12.1020000   1.5430000
 -30.1760000  11.2680000   1.5910000 -31.3310000   1.4610000   3.4000000
 -31.0860000   0.5860000   3.7010000 -31.5460000   1.9380000   4.2010000
 -31.3280000   1.4100000   3.5410000 -27.6450000  14.8660000  11.0200000
 -27.7100000  14.3460000  11.8220000 -27.1010000  15.6150000  11.2630000
 -27.5850000  14.8950000  11.1540000 -22.1460000  13.7620000   7.6390000
 -23.0610000  13.7720000   7.3560000 -22.0240000  12.8940000   8.0240000
 -22.2480000  13.6520000   7.6520000 -34.4930000   5.7260000   1.4340000
 -35.4180000   5.4830000   1.4720000 -34.4970000   6.6460000   1.1690000
 -34.6110000   5.8130000   1.4050000 -32.5240000  10.0790000   4.7230000
 -31.7010000  10.5650000   4.6850000 -32.4730000   9.5840000   5.5400000
 -32.4120000  10.0780000   4.8220000 -35.8330000  17.9540000   8.7990000
 -36.3750000  18.3770000   9.4660000 -34.9350000  18.1510000   9.0610000
 -35.7890000  18.0340000   8.9180000 -30.2300000  11.7160000   4.7250000
 -30.7530000  12.4190000   5.1110000 -30.2170000  11.9120000   3.7890000
 -30.2940000  11.8310000   4.6550000 -23.1860000   6.5830000   0.8890000
 -22.7090000   6.2300000   0.1400000 -22.6850000   7.3550000   1.1520000
 -23.0610000   6.6370000   0.8270000 -34.2920000  12.0190000  15.7190000
 -34.3300000  12.3360000  14.8170000 -35.1650000  11.6600000  15.8840000
 -34.4090000  12.0130000  15.6250000 -30.3850000  13.7590000  14.2940000
 -31.1670000  14.1650000  13.9250000 -30.6720000  12.8880000  14.5670000
 -30.5210000  13.6990000  14.2820000 -21.3340000  -2.3370000  10.2880000
 -21.1890000  -1.9320000  11.1430000 -22.2800000  -2.2690000  10.1490000
 -21.4360000  -2.2770000  10.3800000 -31.3590000   9.7160000  12.7730000
 -31.0340000   8.9130000  13.1800000 -32.2270000   9.4840000  12.4470000
 -31.4280000   9.5840000  12.7830000 -35.7420000  10.6500000  18.7420000
 -34.9400000  11.1600000  18.6320000 -36.1920000  11.0680000  19.4760000
 -35.6970000  10.7690000  18.8220000 -25.2460000   7.7980000   8.0020000
 -24.7480000   7.5910000   7.2110000 -25.0620000   8.7230000   8.1660000
 -25.1590000   7.8900000   7.9220000 -30.6210000   6.5440000   1.7430000
 -31.1030000   5.7270000   1.6120000 -30.1870000   6.7030000   0.9050000
 -30.6280000   6.4600000   1.6190000 -20.5580000  18.5700000  10.0700000
 -20.7050000  17.6270000  10.1510000 -19.9050000  18.7680000  10.7410000
 -20.4940000  18.4740000  10.1660000 -27.9250000   8.3940000   8.6250000
 -28.3320000   9.1540000   8.2090000 -27.0640000   8.3290000   8.2150000
 -27.8670000   8.4830000   8.5190000 -23.3880000   9.6330000   6.1070000
 -22.7150000  10.0450000   6.6470000 -24.1980000  10.0790000   6.3530000
 -23.4050000   9.7430000   6.2070000 -35.2350000  10.1240000   9.6100000
 -34.2780000  10.1080000   9.5910000 -35.4800000   9.3100000  10.0500000
 -35.1430000  10.0180000   9.6640000 -24.9310000   4.1340000  12.1490000
 -25.3850000   4.5760000  11.4310000 -25.4730000   4.3090000  12.9180000
 -25.0580000   4.2130000  12.1550000 -19.7660000   9.0620000  11.0930000
 -20.1550000   8.5880000  11.8290000 -20.3020000   9.8510000  11.0070000
 -19.8850000   9.1020000  11.1760000 -26.3920000   5.6100000   9.9590000
 -25.7660000   6.0600000   9.3920000 -26.5340000   4.7630000   9.5350000
 -26.3300000   5.5590000   9.8320000 -27.8570000  13.4870000  13.4580000
 -27.4650000  14.3080000  13.7540000 -28.7700000  13.5420000  13.7400000
 -27.9230000  13.5990000  13.5320000 -26.3680000   2.3550000   2.7150000
 -27.1280000   2.6030000   2.1870000 -25.8140000   3.1350000   2.7160000
 -26.3950000   2.4870000   2.6480000 -33.8330000   5.6480000   4.4320000
 -33.9230000   5.3770000   3.5190000 -34.7320000   5.8050000   4.7250000
 -33.9610000   5.6340000   4.3530000 -24.2460000   1.5390000   7.2280000
 -24.9090000   1.9450000   6.6680000 -23.5510000   1.2760000   6.6250000
 -24.2420000   1.5580000   7.0790000 -22.6340000   6.7710000  12.6070000
 -22.8980000   6.1190000  13.2570000 -22.4150000   6.2580000  11.8290000
 -22.6400000   6.6220000  12.5910000 -31.8870000   8.5640000   6.8320000
 -31.6990000   7.8120000   6.2700000 -31.0320000   8.9550000   7.0020000
 -31.7550000   8.5180000   6.7820000 -30.2310000   3.4240000  16.0720000
 -29.3100000   3.5000000  16.3160000 -30.6830000   4.0410000  16.6470000
 -30.1710000   3.5120000  16.1760000 -33.2410000   0.4340000   8.9910000
 -33.0700000   1.3550000   9.1900000 -32.6740000  -0.0500000   9.5920000
 -33.1470000   0.4900000   9.0930000 -29.4370000  13.7710000   1.1150000
 -28.5930000  13.7330000   1.5660000 -29.2150000  13.9760000   0.2070000
 -29.3000000  13.7920000   1.0570000 -32.3870000   9.5610000   9.3840000
 -32.1300000   9.1430000   8.5620000 -32.3030000   8.8690000  10.0400000
 -32.3420000   9.4190000   9.3630000 -25.0750000  14.0160000   9.8430000
 -24.9760000  14.2630000   8.9230000 -25.9280000  14.3660000  10.0950000
 -25.1710000  14.0920000   9.7580000 -27.6850000  18.4300000   7.1820000
 -27.8690000  17.6030000   6.7360000 -27.9960000  19.1030000   6.5770000
 -27.7480000  18.4100000   7.0470000 -21.5800000   0.3000000  18.8070000
 -22.1210000  -0.2150000  19.4050000 -22.0450000   1.1330000  18.7200000
 -21.7090000   0.3410000  18.8730000 -26.0960000  17.6650000   0.2720000
 -25.9390000  18.5040000  -0.1610000 -25.8350000  17.8120000   1.1810000
 -26.0420000  17.7910000   0.3330000 -23.9860000  16.4420000  10.3820000
 -24.5300000  17.0420000   9.8710000 -24.3780000  15.5810000  10.2360000
 -24.1050000  16.4090000  10.2980000 -29.8950000  18.8100000   9.3550000
 -29.9280000  18.1230000  10.0200000 -29.4180000  18.4150000   8.6250000
 -29.8390000  18.6720000   9.3470000 -28.3830000   6.9190000  11.1590000
 -28.8320000   6.1650000  11.5410000 -27.6610000   6.5390000  10.6590000
 -28.3480000   6.7740000  11.1440000 -26.8480000  11.0430000  12.8710000
 -27.1250000  11.8670000  13.2730000 -25.8970000  11.0300000  12.9800000
 -26.7610000  11.1470000  12.9360000 -31.3600000   3.6560000   5.1420000
 -31.5090000   4.5990000   5.0640000 -32.1530000   3.3240000   5.5660000
 -31.4800000   3.7340000   5.1860000 -27.4920000  18.2660000  11.1200000
 -26.7030000  18.8040000  11.0660000 -28.0920000  18.6580000  10.4860000
 -27.4680000  18.3850000  11.0320000 -27.7100000   4.0000000  17.5610000
 -28.1750000   4.5980000  18.1450000 -27.1150000   4.5640000  17.0660000
 -27.6930000   4.1480000  17.5720000 -32.1050000   4.1450000   1.7370000
 -33.0220000   3.9300000   1.9030000 -31.6300000   3.7570000   2.4720000
 -32.1610000   4.0680000   1.8520000 -35.4630000   8.8910000  15.0080000
 -36.1420000   9.5300000  15.2280000 -35.8720000   8.0420000  15.1710000
 -35.6030000   8.8640000  15.0570000 -24.5030000  16.8960000   5.9720000
 -24.8700000  17.4770000   6.6370000 -23.6110000  17.2190000   5.8380000
 -24.4350000  17.0120000   6.0400000 -26.3970000   9.3330000  10.9570000
 -26.6650000   9.9760000  11.6140000 -27.1960000   9.1510000  10.4610000
 -26.5340000   9.3920000  10.9770000 -26.4200000   7.6670000  13.5190000
 -26.5840000   7.9760000  12.6280000 -27.2820000   7.4030000  13.8420000
 -26.5510000   7.6730000  13.4470000 -26.1980000   1.8880000  17.6570000
 -26.2010000   1.5980000  16.7450000 -26.8700000   2.5690000  17.6940000
 -26.2850000   1.9380000  17.5450000 -34.5400000   0.5510000   1.6650000
 -34.5390000   1.2930000   2.2690000 -34.0360000   0.8550000   0.9110000
 -34.4750000   0.6850000   1.6460000 -33.6230000  12.5870000   1.9490000
 -33.5370000  12.5360000   0.9970000 -34.1770000  13.3550000   2.0980000
 -33.6830000  12.6790000   1.8460000 -26.4880000  11.3300000  16.0550000
 -27.3060000  11.1740000  15.5840000 -26.4400000  12.2820000  16.1440000
 -26.5860000  11.4320000  16.0060000 -22.1380000   6.0260000  17.2860000
 -21.4250000   5.3940000  17.3810000 -21.6980000   6.8630000  17.1400000
 -21.9910000   6.0520000  17.2790000 -20.6650000  17.3030000  12.8550000
 -20.3840000  17.2070000  13.7650000 -21.4460000  17.8540000  12.9040000
 -20.7300000  17.3610000  12.9780000 -33.0130000  11.9650000   7.9140000
 -33.1010000  12.7450000   8.4630000 -32.9420000  11.2410000   8.5370000
 -33.0160000  11.9720000   8.0640000 -32.9120000   7.1060000  15.0980000
 -33.0030000   6.9860000  14.1530000 -33.6350000   7.6840000  15.3360000
 -33.0160000   7.1650000  15.0070000 -31.8300000   0.6220000   6.5500000
 -32.2350000   0.2910000   7.3520000 -31.7220000  -0.1520000   5.9980000
 -31.8670000   0.4810000   6.5820000 -20.7440000  16.0810000   6.2900000
 -20.6740000  15.4520000   7.0070000 -20.6780000  15.5490000   5.4970000
 -20.7270000  15.9330000   6.2800000 -31.2860000   6.6680000   4.4360000
 -30.9130000   6.6030000   3.5570000 -32.1910000   6.3720000   4.3350000
 -31.3550000   6.6210000   4.3110000 -31.5870000  13.8250000   2.8700000
 -32.3200000  13.3360000   2.4940000 -30.9280000  13.8380000   2.1780000
 -31.5970000  13.7640000   2.7340000 -29.1410000   3.5650000   6.8210000
 -29.9930000   3.4270000   6.4090000 -29.0910000   4.5120000   6.9570000
 -29.2430000   3.6690000   6.7860000 -34.2690000   4.2330000  16.0120000
 -33.4780000   4.2660000  15.4750000 -34.6300000   5.1190000  15.9640000
 -34.2140000   4.3500000  15.9370000 -28.0960000   7.2360000   0.0600000
 -28.1150000   7.8860000   0.7620000 -27.7410000   6.4480000   0.4720000
 -28.0530000   7.2190000   0.2020000 -23.1130000   2.4860000  17.4810000
 -23.0520000   2.1390000  16.5910000 -24.0530000   2.5340000  17.6550000
 -23.2260000   2.4480000  17.3890000 -32.7260000  14.5340000  12.8390000
 -33.2960000  15.2210000  13.1860000 -33.1780000  13.7180000  13.0530000
 -32.8570000  14.5180000  12.9110000 -26.1350000  16.1150000   3.9300000
 -26.8200000  16.0430000   4.5950000 -25.3360000  16.2930000   4.4270000
 -26.1200000  16.1280000   4.0790000 -28.4230000   1.7390000   4.9120000
 -28.6480000   2.5240000   5.4110000 -27.5240000   1.8910000   4.6200000
 -28.3360000   1.8590000   4.9390000 -22.9960000   1.4590000   9.7820000
 -22.1250000   1.0660000   9.8390000 -23.0950000   1.6900000   8.8590000
 -22.8970000   1.4380000   9.6710000 -26.0890000   1.7260000  14.9160000
 -26.3480000   0.9500000  14.4190000 -25.1320000   1.7310000  14.8680000
 -26.0000000   1.6270000  14.8460000 -25.1250000  15.0870000   0.1770000
 -25.5250000  15.9550000   0.2270000 -25.6010000  14.5660000   0.8240000
 -25.2370000  15.1320000   0.2660000 -29.1680000   3.8740000  10.1970000
 -30.0200000   3.4430000  10.1100000 -29.0700000   4.0210000  11.1380000
 -29.2650000   3.8380000  10.3060000 -30.5370000   0.8950000  17.3480000
 -31.0900000   1.2060000  18.0640000 -30.4760000   1.6410000  16.7510000
 -30.6010000   1.0300000  17.3630000 -31.7460000  13.4080000   6.0330000
 -32.3820000  12.9530000   6.5840000 -32.2350000  14.1420000   5.6600000
 -31.8890000  13.4440000   6.0560000 -25.8680000  15.0790000  14.2380000
 -26.0710000  14.7690000  15.1200000 -25.3550000  14.3710000  13.8480000
 -25.8280000  14.9480000  14.3010000 -23.2230000  12.6810000  16.8850000
 -23.8630000  12.1480000  17.3570000 -23.2610000  12.3580000  15.9840000
 -23.3100000  12.5710000  16.8300000 -29.4560000  15.0490000  17.0200000
 -29.8430000  14.6840000  16.2240000 -30.1050000  15.6780000  17.3350000
 -29.5900000  15.0820000  16.9590000 -35.1930000   4.0290000   9.8110000
 -35.2870000   3.5620000   8.9810000 -34.3700000   3.7060000  10.1760000
 -35.1010000   3.9280000   9.7520000 -20.5560000  10.5180000  14.7020000
 -21.4470000  10.7340000  14.9800000 -20.2800000  11.2710000  14.1800000
 -20.6350000  10.6420000  14.6710000 -21.4880000  12.5400000   5.1340000
 -21.4660000  12.6560000   6.0840000 -21.3150000  13.4130000   4.7830000
 -21.4630000  12.6670000   5.2110000 -22.1130000  18.4800000   5.4410000
 -22.3780000  18.4450000   4.5220000 -21.4910000  17.7590000   5.5400000
 -22.0670000  18.3830000   5.3360000 -24.9390000  18.4760000   2.9520000
 -25.4550000  17.7910000   3.3780000 -25.4220000  19.2830000   3.1260000
 -25.0670000  18.4910000   3.0290000 -33.0300000   3.2870000  11.0670000
 -32.5780000   2.7080000  11.6810000 -32.4670000   3.3020000  10.2940000
 -32.9000000   3.2150000  11.0470000 -25.2030000  20.0190000  11.2530000
 -24.4270000  19.8630000  10.7140000 -25.2330000  20.9700000  11.3590000
 -25.1070000  20.1210000  11.1980000 -28.6330000  16.4310000   5.4820000
 -28.8700000  15.6180000   5.9260000 -29.4370000  16.7090000   5.0450000
 -28.7650000  16.3630000   5.4830000 -23.4390000  15.8510000  16.7890000
 -23.1700000  14.9470000  16.9490000 -24.3910000  15.8380000  16.8900000
 -23.5260000  15.7340000  16.8230000 -23.1300000  11.5570000  14.4860000
 -23.7390000  10.8210000  14.5420000 -23.5610000  12.1810000  13.9030000
 -23.2620000  11.5420000  14.4190000 -34.0320000  12.1450000  12.9110000
 -34.4920000  12.4890000  12.1460000 -33.9510000  11.2070000  12.7390000
 -34.0800000  12.0690000  12.7910000 -35.8360000   9.7860000   5.0960000
 -34.8800000   9.8180000   5.1230000 -36.1070000  10.7030000   5.1340000
 -35.7470000   9.9070000   5.1040000 -30.9950000   5.2450000  18.0400000
 -31.7600000   4.8480000  18.4570000 -31.2500000   6.1560000  17.8910000
 -31.1260000   5.3110000  18.0740000 -34.4760000   3.0760000   3.0670000
 -34.1680000   3.1410000   3.9710000 -35.3940000   2.8180000   3.1460000
 -34.5550000   3.0510000   3.1930000 -25.1670000   7.3370000   5.4510000
 -24.5470000   7.7810000   4.8720000 -25.9780000   7.8410000   5.3660000
 -25.1910000   7.4590000   5.3660000 -32.8750000  15.4730000   4.6830000
 -33.5760000  15.8710000   4.1660000 -32.4430000  14.8700000   4.0770000
 -32.9090000  15.4470000   4.5390000 -24.2740000  13.4160000  12.5050000
 -24.4470000  13.3390000  11.5670000 -23.4910000  13.9630000  12.5600000
 -24.1960000  13.4760000  12.3920000 -29.4560000   9.8000000   6.8240000
 -28.9420000   9.2000000   6.2840000 -29.7300000  10.4900000   6.2200000
 -29.4260000   9.8110000   6.6780000 -22.4280000  18.3670000  16.1150000
 -22.0200000  18.5390000  16.9630000 -22.6970000  17.4500000  16.1600000
 -22.4100000  18.2720000  16.2290000 -23.4150000   3.0290000  14.3830000
 -23.7010000   3.8550000  14.7740000 -23.6370000   3.1130000  13.4560000
 -23.4800000   3.1460000  14.3150000 -19.7620000  17.6590000   3.1130000
 -19.1740000  17.4820000   2.3780000 -20.3520000  18.3390000   2.7890000
 -19.7620000  17.7230000   2.9770000 -19.9210000  16.0140000  18.1080000
 -20.6940000  16.0450000  18.6720000 -19.3040000  16.6240000  18.5140000
 -19.9410000  16.0960000  18.2330000 -19.3990000   4.3650000   6.8690000
 -18.8170000   4.8500000   6.2830000 -19.9650000   5.0350000   7.2520000
 -19.3970000   4.5130000   6.8430000 -25.0200000  11.1410000  18.1770000
 -25.8310000  11.1790000  17.6700000 -24.6560000  10.2780000  17.9820000
 -25.0780000  11.0360000  18.0870000 -31.6800000   3.1840000   8.7350000
 -31.8590000   3.7740000   8.0030000 -31.1950000   2.4570000   8.3450000
 -31.6410000   3.1670000   8.5920000 -35.3940000  13.2810000  11.1170000
 -35.1350000  13.9740000  10.5090000 -36.2670000  13.5400000  11.4160000
 -35.4720000  13.4030000  11.0770000 -21.7070000  10.8710000   8.0980000
 -20.8530000  10.5300000   7.8280000 -21.6850000  10.8420000   9.0540000
 -21.5950000  10.8230000   8.1850000 -28.7760000   7.7820000  16.0030000
 -29.5300000   7.4520000  15.5140000 -28.9780000   7.5840000  16.9170000
 -28.8980000   7.7140000  16.0570000 -25.2260000   7.1050000  18.0720000
 -26.0100000   7.0660000  18.6200000 -24.5900000   6.5540000  18.5260000
 -25.2450000   7.0300000  18.2000000 -23.5600000  11.5420000   3.3130000
 -23.1650000  11.8830000   4.1150000 -23.0700000  11.9610000   2.6060000
 -23.4470000  11.6390000   3.3250000 -23.8320000   5.6280000  15.2750000
 -23.1380000   5.8220000  15.9070000 -24.4670000   6.3340000  15.3930000
 -23.8250000   5.7430000  15.3710000 -23.3660000  17.8980000  12.7500000
 -23.8400000  18.7310000  12.7430000 -23.8970000  17.3170000  12.2060000
 -23.4950000  17.9300000  12.6800000 -31.2550000   2.5690000  -5.2660000
 -31.0260000   2.5410000  -4.3370000 -31.8840000   1.8570000  -5.3790000
 -31.3050000   2.4740000  -5.1610000 -33.8550000  16.7550000  -5.0060000
 -34.8100000  16.6870000  -5.0380000 -33.6670000  17.0620000  -4.1200000
 -33.9530000  16.7860000  -4.8970000 -29.0900000  14.1990000 -11.8430000
 -29.2640000  14.3600000 -10.9150000 -29.8550000  13.7130000 -12.1490000
 -29.2100000  14.1570000 -11.7630000 -33.3390000   0.8550000  -5.7600000
 -33.8990000   1.3030000  -5.1260000 -33.4850000  -0.0760000  -5.5930000
 -33.4280000   0.7930000  -5.6580000 -32.5190000   9.0960000 -16.5120000
 -32.6730000   9.5530000 -15.6850000 -31.8080000   8.4860000 -16.3200000
 -32.4480000   9.0760000 -16.3820000 -29.1250000   4.3050000  -5.9070000
 -29.7280000   3.6640000  -5.5320000 -28.3350000   4.2360000  -5.3690000
 -29.1010000   4.2150000  -5.7900000 -28.5860000   0.7420000   0.3710000
 -27.6950000   0.5130000   0.1070000 -29.1090000   0.6210000  -0.4220000
 -28.5380000   0.6980000   0.2360000 -22.3580000  15.2550000 -18.3260000
 -23.2200000  15.5830000 -18.5820000 -22.4550000  14.3030000 -18.3270000
 -22.4810000  15.1750000 -18.3590000 -35.6320000  15.3520000 -11.5490000
 -35.5940000  16.2450000 -11.8930000 -36.4320000  15.3310000 -11.0230000
 -35.7300000  15.4640000 -11.5260000 -30.9210000  17.1420000 -14.8600000
 -31.7200000  16.6150000 -14.8500000 -30.5780000  17.0390000 -15.7470000
 -30.9800000  17.0610000 -14.9720000 -26.7010000   4.1310000  -4.6390000
 -26.5230000   3.2490000  -4.3130000 -26.3830000   4.7110000  -3.9470000
 -26.6370000   4.0920000  -4.5080000 -27.0140000  12.1270000 -12.3930000
 -27.4400000  11.5200000 -12.9970000 -27.6760000  12.7940000 -12.2150000
 -27.1530000  12.1350000 -12.4470000 -21.2610000   2.7590000 -13.1400000
 -21.1940000   1.8120000 -13.2640000 -20.3920000   3.0240000 -12.8390000
 -21.1410000   2.6720000 -13.1170000 -20.1420000   7.0500000 -11.2990000
 -20.9210000   7.1600000 -10.7540000 -19.7980000   7.9360000 -11.4080000
 -20.1980000   7.1770000 -11.2430000 -29.0460000   3.1780000 -17.1510000
 -29.3120000   2.7150000 -16.3560000 -29.0300000   2.5010000 -17.8270000
 -29.0780000   3.0320000 -17.1350000 -28.8110000  10.3660000  -3.8670000
 -28.9400000   9.5010000  -3.4780000 -28.3680000  10.1910000  -4.6980000
 -28.7710000  10.2330000  -3.9240000 -25.9350000  11.3180000 -16.8480000
 -25.1650000  11.3390000 -16.2810000 -25.6160000  10.9510000 -17.6720000
 -25.7960000  11.2740000 -16.8810000 -20.2000000  10.9550000 -15.1180000
 -20.5650000  11.5960000 -14.5080000 -20.9650000  10.5330000 -15.5100000
 -20.3440000  10.9830000 -15.0900000 -22.2170000  12.5550000 -18.1010000
 -22.1750000  12.4210000 -19.0480000 -21.3320000  12.8220000 -17.8580000
 -22.0980000  12.5720000 -18.1910000 -21.8750000   2.9850000 -16.0130000
 -21.7420000   2.8410000 -15.0760000 -22.7420000   3.3840000 -16.0730000
 -21.9680000   3.0170000 -15.9000000 -25.2240000  14.7220000 -11.5120000
 -25.0480000  15.5720000 -11.9150000 -25.9840000  14.3850000 -11.9860000
 -25.2980000  14.7880000 -11.6240000 -25.4350000  18.0470000 -10.2600000
 -24.8480000  18.7840000 -10.4350000 -26.2160000  18.2330000 -10.7790000
 -25.4590000  18.1650000 -10.3490000 -33.1130000   5.3020000 -11.7400000
 -33.5190000   5.3010000 -12.6070000 -33.5980000   5.9650000 -11.2490000
 -33.2260000   5.3870000 -11.7880000 -34.9930000   1.6980000  -3.7220000
 -34.7870000   2.5960000  -3.4650000 -35.3500000   1.2970000  -2.9290000
 -35.0120000   1.7610000  -3.5880000 -33.6860000   2.4890000 -13.0220000
 -34.4430000   2.4760000 -12.4370000 -33.1530000   1.7450000 -12.7410000
 -33.7140000   2.3920000 -12.9110000 -26.6450000   6.1870000  -2.7230000
 -26.0600000   6.5000000  -2.0340000 -27.3710000   6.8120000  -2.7230000
 -26.6630000   6.3070000  -2.6350000 -29.0260000   6.6880000 -13.1910000
 -29.8510000   6.6700000 -13.6760000 -29.2760000   6.5020000 -12.2860000
 -29.1630000   6.6620000 -13.1370000 -31.9110000  16.3530000  -8.5740000
 -32.1730000  15.9780000  -7.7330000 -31.1800000  15.8080000  -8.8630000
 -31.8510000  16.2350000  -8.5040000 -33.6730000  14.5460000  -9.8590000
 -34.3970000  14.8490000 -10.4070000 -33.0800000  15.2960000  -9.8110000
 -33.6900000  14.6810000  -9.9230000 -34.2010000   8.3100000 -18.5210000
 -34.8030000   9.0470000 -18.6170000 -33.5710000   8.6000000 -17.8600000
 -34.1970000   8.4410000 -18.4490000 -29.7730000  16.7720000 -17.2280000
 -29.3150000  15.9500000 -17.0560000 -29.0750000  17.4120000 -17.3670000
 -29.6250000  16.7490000 -17.2240000 -31.0500000   7.2630000  -8.2460000
 -30.1690000   7.5550000  -8.0140000 -30.9650000   6.9290000  -9.1390000
 -30.9260000   7.2580000  -8.3310000 -35.0860000  15.0210000   0.4250000
 -34.6030000  15.5820000  -0.1820000 -35.5280000  14.3850000  -0.1360000
 -35.0800000  15.0120000   0.2760000 -31.4600000  16.7570000  -0.7770000
 -30.8850000  16.6700000  -0.0160000 -31.5010000  17.6990000  -0.9390000
 -31.3910000  16.8660000  -0.7010000 -26.7530000   3.0820000 -10.0620000
 -27.7050000   3.0190000  -9.9910000 -26.4250000   2.3540000  -9.5340000
 -26.8340000   2.9810000  -9.9850000 -21.6250000  11.0900000  -7.9400000
 -21.1850000  11.5970000  -7.2570000 -22.2960000  10.5930000  -7.4740000
 -21.6530000  11.0910000  -7.7930000 -31.1050000  10.6110000  -0.8760000
 -31.2620000   9.6670000  -0.9120000 -31.1930000  10.9030000  -1.7830000
 -31.1370000  10.5270000  -0.9970000 -26.8970000  13.9190000 -16.7740000
 -26.5930000  13.0260000 -16.6180000 -26.3700000  14.4590000 -16.1850000
 -26.7910000  13.8740000 -16.6790000 -24.2740000   4.4070000 -16.1980000
 -24.1700000   4.7510000 -15.3110000 -24.4050000   5.1830000 -16.7430000
 -24.2780000   4.5500000 -16.1540000 -23.7870000   9.5920000  -7.0200000
 -24.6620000   9.3350000  -7.3100000 -23.4350000   8.8090000  -6.5960000
 -23.8550000   9.4590000  -7.0030000 -34.0780000  16.5080000  -1.8620000
 -34.3300000  17.4120000  -1.6710000 -33.1730000  16.4430000  -1.5590000
 -33.9940000  16.6160000  -1.7990000 -32.0450000   1.5810000 -18.2110000
 -31.7030000   1.5900000 -17.3170000 -32.5300000   2.4030000 -18.2890000
 -32.0640000   1.6880000 -18.1070000 -29.4420000   6.0920000 -10.5570000
 -29.3560000   5.3080000 -10.0140000 -29.0030000   6.7790000 -10.0570000
 -29.3750000   6.0800000 -10.4240000 -20.7650000  14.8320000 -15.2210000
 -20.6430000  15.7070000 -15.5890000 -20.5550000  14.2380000 -15.9420000
 -20.7220000  14.8680000 -15.3610000 -22.3460000   0.2310000 -16.3430000
 -22.2180000   1.1460000 -16.5950000 -23.2950000   0.1360000 -16.2580000
 -22.4510000   0.3360000 -16.3640000 -26.3160000  14.1160000  -2.0870000
 -25.7350000  13.9520000  -1.3460000 -26.9100000  14.8020000  -1.7790000
 -26.3180000  14.1830000  -1.9530000 -30.0140000  14.5800000  -9.3480000
 -30.4940000  13.7720000  -9.1710000 -29.2850000  14.5660000  -8.7290000
 -29.9820000  14.4750000  -9.2460000 -19.1710000   1.5690000 -18.3420000
 -19.3470000   2.4100000 -18.7630000 -19.9800000   1.0700000 -18.4560000
 -19.2970000   1.6130000 -18.4100000 -16.6020000   7.4970000 -10.9640000
 -16.5880000   7.1840000 -10.0590000 -16.6520000   8.4500000 -10.8870000
 -16.6060000   7.5790000 -10.8380000 -27.2100000   5.4330000 -17.0810000
 -27.8350000   4.7090000 -17.0570000 -26.9910000   5.5920000 -16.1630000
 -27.2610000   5.3610000 -16.9610000 -30.4710000   7.0810000  -4.9610000
 -31.3160000   6.7610000  -4.6440000 -29.9980000   6.2900000  -5.2200000
 -30.5200000   6.9390000  -4.9530000 -33.5450000  12.2670000  -0.6270000
 -32.7330000  11.7790000  -0.7690000 -33.8140000  12.5440000  -1.5030000
 -33.4760000  12.2400000  -0.7580000 -34.6370000  16.8390000 -15.5040000
 -35.2190000  17.3370000 -14.9310000 -34.4080000  17.4500000 -16.2040000
 -34.6820000  16.9810000 -15.5200000 -21.0370000   8.3980000 -17.0800000
 -21.4940000   8.1570000 -16.2740000 -20.1110000   8.2580000 -16.8810000
 -20.9770000   8.3490000 -16.9510000 -31.2820000  11.3070000  -3.5990000
 -30.4030000  10.9340000  -3.6510000 -31.8200000  10.7260000  -4.1360000
 -31.2380000  11.1850000  -3.6740000 -22.2930000  15.0180000  -5.2420000
 -22.6450000  14.9150000  -4.3570000 -22.1450000  15.9600000  -5.3320000
 -22.3200000  15.1250000  -5.1400000 -20.1560000  16.7850000  -3.3630000
 -19.9580000  16.3900000  -2.5130000 -20.8280000  17.4400000  -3.1720000
 -20.2170000  16.8180000  -3.2300000 -22.9120000   4.1150000 -11.4920000
 -22.2160000   3.7290000 -12.0250000 -23.5220000   3.3930000 -11.3370000
 -22.9010000   3.9730000 -11.5410000 -24.8380000   9.5640000  -3.9500000
 -25.3950000   9.1700000  -4.6220000 -25.4150000  10.1740000  -3.4900000
 -24.9830000   9.5920000  -3.9770000 -20.9240000   8.8250000  -0.7560000
 -21.7470000   9.1650000  -1.1050000 -21.0690000   8.7690000   0.1890000
 -21.0470000   8.8610000  -0.6800000 -27.0110000   5.5510000 -14.4170000
 -27.8350000   5.8340000 -14.0210000 -26.3340000   5.9370000 -13.8620000
 -27.0300000   5.6360000 -14.2950000 -34.0000000   9.1420000  -6.3240000
 -34.3760000   9.0150000  -5.4540000 -34.5630000   8.6310000  -6.9060000
 -34.1190000   9.0610000  -6.2870000 -24.9920000  10.6520000 -10.8690000
 -24.4470000  11.1530000 -10.2620000 -25.6860000  11.2590000 -11.1260000
 -25.0110000  10.7930000 -10.8240000 -22.2880000   7.8980000 -14.6760000
 -22.3320000   8.5170000 -13.9460000 -22.6550000   7.0870000 -14.3240000
 -22.3400000   7.8740000 -14.5370000 -27.5380000   8.7620000 -14.1970000
 -28.2100000   8.0810000 -14.1670000 -27.4600000   8.9790000 -15.1260000
 -27.6150000   8.7030000 -14.3120000 -33.8510000   3.6150000  -0.2340000
 -34.0050000   3.8950000  -1.1360000 -34.0890000   4.3750000   0.2970000
 -33.9020000   3.7480000  -0.2810000 -26.3530000  17.7410000  -5.0790000
 -26.9010000  17.6720000  -5.8590000 -25.9880000  16.8640000  -4.9630000
 -26.3750000  17.6200000  -5.1640000 -31.9180000   7.7360000  -1.1280000
 -32.0340000   7.4520000  -2.0350000 -32.8100000   7.8390000  -0.7950000
 -32.0480000   7.7130000  -1.2020000 -32.8730000   6.0630000  -6.2820000
 -33.4640000   5.3240000  -6.4340000 -32.2620000   6.0350000  -7.0170000
 -32.8700000   5.9650000  -6.3960000 -31.4880000  12.2550000  -8.2500000
 -31.5280000  11.3000000  -8.2870000 -31.9430000  12.4830000  -7.4400000
 -31.5510000  12.1620000  -8.1510000 -23.5230000   8.9080000  -1.5680000
 -24.2150000   8.2680000  -1.4000000 -23.7310000   9.2640000  -2.4310000
 -23.6380000   8.8710000  -1.6570000 -35.5720000  12.4550000 -12.2290000
 -34.8930000  12.1750000 -11.6150000 -35.4750000  13.4050000 -12.2780000
 -35.4730000  12.5410000 -12.1560000 -30.1590000  11.1910000 -17.1420000
 -30.5410000  10.8820000 -17.9630000 -29.9190000  12.1020000 -17.3170000
 -30.1760000  11.2680000 -17.2690000 -31.3310000   1.4610000 -15.4600000
 -31.0860000   0.5860000 -15.1590000 -31.5460000   1.9380000 -14.6590000
 -31.3280000   1.4100000 -15.3190000 -26.0990000   3.2100000 -12.9220000
 -26.3930000   3.9250000 -13.4860000 -26.3700000   3.4710000 -12.0420000
 -26.1710000   3.3350000 -12.8820000 -27.6450000  14.8660000  -7.8400000
 -27.7100000  14.3460000  -7.0380000 -27.1010000  15.6150000  -7.5970000
 -27.5850000  14.8950000  -7.7060000 -22.1460000  13.7620000 -11.2210000
 -23.0610000  13.7720000 -11.5040000 -22.0240000  12.8940000 -10.8360000
 -22.2480000  13.6520000 -11.2080000 -34.4930000   5.7260000 -17.4260000
 -35.4180000   5.4830000 -17.3880000 -34.4970000   6.6460000 -17.6910000
 -34.6110000   5.8130000 -17.4550000 -32.5240000  10.0790000 -14.1370000
 -31.7010000  10.5650000 -14.1750000 -32.4730000   9.5840000 -13.3200000
 -32.4120000  10.0780000 -14.0380000 -35.8330000  17.9540000 -10.0610000
 -36.3750000  18.3770000  -9.3940000 -34.9350000  18.1510000  -9.7990000
 -35.7890000  18.0340000  -9.9420000 -30.2300000  11.7160000 -14.1350000
 -30.7530000  12.4190000 -13.7490000 -30.2170000  11.9120000 -15.0710000
 -30.2940000  11.8310000 -14.2050000 -23.1860000   6.5830000 -17.9710000
 -22.7090000   6.2300000 -18.7200000 -22.6850000   7.3550000 -17.7080000
 -23.0610000   6.6370000 -18.0330000 -34.2920000  12.0190000  -3.1410000
 -34.3300000  12.3360000  -4.0430000 -35.1650000  11.6600000  -2.9760000
 -34.4090000  12.0130000  -3.2350000 -30.3850000  13.7590000  -4.5660000
 -31.1670000  14.1650000  -4.9350000 -30.6720000  12.8880000  -4.2930000
 -30.5210000  13.6990000  -4.5780000 -31.3590000   9.7160000  -6.0870000
 -31.0340000   8.9130000  -5.6800000 -32.2270000   9.4840000  -6.4130000
 -31.4280000   9.5840000  -6.0770000 -35.7420000  10.6500000  -0.1180000
 -34.9400000  11.1600000  -0.2280000 -36.1920000  11.0680000   0.6160000
 -35.6970000  10.7690000  -0.0380000 -25.2460000   7.7980000 -10.8580000
 -24.7480000   7.5910000 -11.6490000 -25.0620000   8.7230000 -10.6940000
 -25.1590000   7.8900000 -10.9380000 -30.6210000   6.5440000 -17.1170000
 -31.1030000   5.7270000 -17.2480000 -30.1870000   6.7030000 -17.9550000
 -30.6280000   6.4600000 -17.2410000 -20.5580000  18.5700000  -8.7900000
 -20.7050000  17.6270000  -8.7090000 -19.9050000  18.7680000  -8.1190000
 -20.4940000  18.4740000  -8.6940000 -19.2250000  14.8480000 -10.0040000
 -20.0700000  15.2610000  -9.8200000 -19.3570000  13.9260000  -9.7860000
 -19.3500000  14.7830000  -9.9530000 -27.9250000   8.3940000 -10.2350000
 -28.3320000   9.1540000 -10.6510000 -27.0640000   8.3290000 -10.6450000
 -27.8670000   8.4830000 -10.3410000 -23.3880000   9.6330000 -12.7530000
 -22.7150000  10.0450000 -12.2130000 -24.1980000  10.0790000 -12.5070000
 -23.4050000   9.7430000 -12.6530000 -35.2350000  10.1240000  -9.2500000
 -34.2780000  10.1080000  -9.2690000 -35.4800000   9.3100000  -8.8100000
 -35.1430000  10.0180000  -9.1960000 -24.9310000   4.1340000  -6.7110000
 -25.3850000   4.5760000  -7.4290000 -25.4730000   4.3090000  -5.9420000
 -25.0580000   4.2130000  -6.7050000 -19.7660000   9.0620000  -7.7670000
 -20.1550000   8.5880000  -7.0310000 -20.3020000   9.8510000  -7.8530000
 -19.8850000   9.1020000  -7.6840000 -26.3920000   5.6100000  -8.9010000
 -25.7660000   6.0600000  -9.4680000 -26.5340000   4.7630000  -9.3250000
 -26.3300000   5.5590000  -9.0280000 -27.8570000  13.4870000  -5.4020000
 -27.4650000  14.3080000  -5.1060000 -28.7700000  13.5420000  -5.1200000
 -27.9230000  13.5990000  -5.3280000 -26.3680000   2.3550000 -16.1450000
 -27.1280000   2.6030000 -16.6730000 -25.8140000   3.1350000 -16.1440000
 -26.3950000   2.4870000 -16.2120000 -33.8330000   5.6480000 -14.4280000
 -33.9230000   5.3770000 -15.3410000 -34.7320000   5.8050000 -14.1350000
 -33.9610000   5.6340000 -14.5070000 -24.2460000   1.5390000 -11.6320000
 -24.9090000   1.9450000 -12.1920000 -23.5510000   1.2760000 -12.2350000
 -24.2420000   1.5580000 -11.7810000 -22.6340000   6.7710000  -6.2530000
 -22.8980000   6.1190000  -5.6030000 -22.4150000   6.2580000  -7.0310000
 -22.6400000   6.6220000  -6.2690000 -31.8870000   8.5640000 -12.0280000
 -31.6990000   7.8120000 -12.5900000 -31.0320000   8.9550000 -11.8580000
 -31.7550000   8.5180000 -12.0780000 -30.2310000   3.4240000  -2.7880000
 -29.3100000   3.5000000  -2.5440000 -30.6830000   4.0410000  -2.2130000
 -30.1710000   3.5120000  -2.6840000 -33.2410000   0.4340000  -9.8690000
 -33.0700000   1.3550000  -9.6700000 -32.6740000  -0.0500000  -9.2680000
 -33.1470000   0.4900000  -9.7670000 -29.4370000  13.7710000 -17.7450000
 -28.5930000  13.7330000 -17.2940000 -29.2150000  13.9760000 -18.6530000
 -29.3000000  13.7920000 -17.8030000 -32.3870000   9.5610000  -9.4760000
 -32.1300000   9.1430000 -10.2980000 -32.3030000   8.8690000  -8.8200000
 -32.3420000   9.4190000  -9.4970000 -25.0750000  14.0160000  -9.0170000
 -24.9760000  14.2630000  -9.9370000 -25.9280000  14.3660000  -8.7650000
 -25.1710000  14.0920000  -9.1020000 -27.6850000  18.4300000 -11.6780000
 -27.8690000  17.6030000 -12.1240000 -27.9960000  19.1030000 -12.2830000
 -27.7480000  18.4100000 -11.8130000 -26.0960000  17.6650000 -18.5880000
 -25.9390000  18.5040000 -19.0210000 -25.8350000  17.8120000 -17.6790000
 -26.0420000  17.7910000 -18.5270000 -23.9860000  16.4420000  -8.4780000
 -24.5300000  17.0420000  -8.9890000 -24.3780000  15.5810000  -8.6240000
 -24.1050000  16.4090000  -8.5620000 -20.2110000   7.8510000  -4.8550000
 -21.1070000   7.5260000  -4.9420000 -20.3110000   8.7460000  -4.5300000
 -20.3390000   7.9240000  -4.8240000 -29.8950000  18.8100000  -9.5050000
 -29.9280000  18.1230000  -8.8400000 -29.4180000  18.4150000 -10.2350000
 -29.8390000  18.6720000  -9.5130000 -28.0150000   9.5380000 -16.8170000
 -27.2850000  10.1580000 -16.8280000 -28.7970000  10.0890000 -16.8480000
 -28.0220000   9.6880000 -16.8230000 -28.3830000   6.9190000  -7.7010000
 -28.8320000   6.1650000  -7.3190000 -27.6610000   6.5390000  -8.2010000
 -28.3480000   6.7740000  -7.7160000 -26.8480000  11.0430000  -5.9890000
 -27.1250000  11.8670000  -5.5870000 -25.8970000  11.0300000  -5.8800000
 -26.7610000  11.1470000  -5.9240000 -31.3600000   3.6560000 -13.7180000
 -31.5090000   4.5990000 -13.7960000 -32.1530000   3.3240000 -13.2940000
 -31.4800000   3.7340000 -13.6740000 -27.4920000  18.2660000  -7.7400000
 -26.7030000  18.8040000  -7.7940000 -28.0920000  18.6580000  -8.3740000
 -27.4680000  18.3850000  -7.8280000 -27.7100000   4.0000000  -1.2990000
 -28.1750000   4.5980000  -0.7150000 -27.1150000   4.5640000  -1.7940000
 -27.6930000   4.1480000  -1.2880000 -32.1050000   4.1450000 -17.1230000
 -33.0220000   3.9300000 -16.9570000 -31.6300000   3.7570000 -16.3880000
 -32.1610000   4.0680000 -17.0080000 -35.4630000   8.8910000  -3.8520000
 -36.1420000   9.5300000  -3.6320000 -35.8720000   8.0420000  -3.6890000
 -35.6030000   8.8640000  -3.8030000 -24.5030000  16.8960000 -12.8880000
 -24.8700000  17.4770000 -12.2230000 -23.6110000  17.2190000 -13.0220000
 -24.4350000  17.0120000 -12.8200000 -26.3970000   9.3330000  -7.9030000
 -26.6650000   9.9760000  -7.2460000 -27.1960000   9.1510000  -8.3990000
 -26.5340000   9.3920000  -7.8830000 -26.4200000   7.6670000  -5.3410000
 -26.5840000   7.9760000  -6.2320000 -27.2820000   7.4030000  -5.0180000
 -26.5510000   7.6730000  -5.4130000 -26.1980000   1.8880000  -1.2030000
 -26.2010000   1.5980000  -2.1150000 -26.8700000   2.5690000  -1.1660000
 -26.2850000   1.9380000  -1.3150000 -34.5400000   0.5510000 -17.1950000
 -34.5390000   1.2930000 -16.5910000 -34.0360000   0.8550000 -17.9490000
 -34.4750000   0.6850000 -17.2140000 -33.6230000  12.5870000 -16.9110000
 -33.5370000  12.5360000 -17.8630000 -34.1770000  13.3550000 -16.7620000
 -33.6830000  12.6790000 -17.0140000 -26.4880000  11.3300000  -2.8050000
 -27.3060000  11.1740000  -3.2760000 -26.4400000  12.2820000  -2.7160000
 -26.5860000  11.4320000  -2.8540000 -22.1380000   6.0260000  -1.5740000
 -21.4250000   5.3940000  -1.4790000 -21.6980000   6.8630000  -1.7200000
 -21.9910000   6.0520000  -1.5810000 -20.6650000  17.3030000  -6.0050000
 -20.3840000  17.2070000  -5.0950000 -21.4460000  17.8540000  -5.9560000
 -20.7300000  17.3610000  -5.8820000 -33.0130000  11.9650000 -10.9460000
 -33.1010000  12.7450000 -10.3970000 -32.9420000  11.2410000 -10.3230000
 -33.0160000  11.9720000 -10.7960000 -32.9120000   7.1060000  -3.7620000
 -33.0030000   6.9860000  -4.7070000 -33.6350000   7.6840000  -3.5240000
 -33.0160000   7.1650000  -3.8530000 -31.8300000   0.6220000 -12.3100000
 -32.2350000   0.2910000 -11.5080000 -31.7220000  -0.1520000 -12.8620000
 -31.8670000   0.4810000 -12.2780000 -20.7440000  16.0810000 -12.5700000
 -20.6740000  15.4520000 -11.8530000 -20.6780000  15.5490000 -13.3630000
 -20.7270000  15.9330000 -12.5800000 -31.2860000   6.6680000 -14.4240000
 -30.9130000   6.6030000 -15.3030000 -32.1910000   6.3720000 -14.5250000
 -31.3550000   6.6210000 -14.5490000 -31.5870000  13.8250000 -15.9900000
 -32.3200000  13.3360000 -16.3660000 -30.9280000  13.8380000 -16.6820000
 -31.5970000  13.7640000 -16.1260000 -29.1410000   3.5650000 -12.0390000
 -29.9930000   3.4270000 -12.4510000 -29.0910000   4.5120000 -11.9030000
 -29.2430000   3.6690000 -12.0740000 -34.2690000   4.2330000  -2.8480000
 -33.4780000   4.2660000  -3.3850000 -34.6300000   5.1190000  -2.8960000
 -34.2140000   4.3500000  -2.9230000 -28.0960000   7.2360000 -18.8000000
 -28.1150000   7.8860000 -18.0980000 -27.7410000   6.4480000 -18.3880000
 -28.0530000   7.2190000 -18.6580000 -23.1130000   2.4860000  -1.3790000
 -23.0520000   2.1390000  -2.2690000 -24.0530000   2.5340000  -1.2050000
 -23.2260000   2.4480000  -1.4710000 -32.7260000  14.5340000  -6.0210000
 -33.2960000  15.2210000  -5.6740000 -33.1780000  13.7180000  -5.8070000
 -32.8570000  14.5180000  -5.9490000 -26.1350000  16.1150000 -14.9300000
 -26.8200000  16.0430000 -14.2650000 -25.3360000  16.2930000 -14.4330000
 -26.1200000  16.1280000 -14.7810000 -28.4230000   1.7390000 -13.9480000
 -28.6480000   2.5240000 -13.4490000 -27.5240000   1.8910000 -14.2400000
 -28.3360000   1.8590000 -13.9210000 -22.9960000   1.4590000  -9.0780000
 -22.1250000   1.0660000  -9.0210000 -23.0950000   1.6900000 -10.0010000
 -22.8970000   1.4380000  -9.1890000 -26.0890000   1.7260000  -3.9440000
 -26.3480000   0.9500000  -4.4410000 -25.1320000   1.7310000  -3.9920000
 -26.0000000   1.6270000  -4.0140000 -22.9710000   5.3240000 -13.8300000
 -23.1920000   5.0740000 -12.9320000 -22.1550000   4.8580000 -14.0130000
 -22.8950000   5.2320000 -13.7380000 -25.1250000  15.0870000 -18.6830000
 -25.5250000  15.9550000 -18.6330000 -25.6010000  14.5660000 -18.0360000
 -25.2370000  15.1320000 -18.5940000 -29.1680000   3.8740000  -8.6630000
 -30.0200000   3.4430000  -8.7500000 -29.0700000   4.0210000  -7.7220000
 -29.2650000   3.8380000  -8.5540000 -30.5370000   0.8950000  -1.5120000
 -31.0900000   1.2060000  -0.7960000 -30.4760000   1.6410000  -2.1090000
 -30.6010000   1.0300000  -1.4970000 -31.7460000  13.4080000 -12.8270000
 -32.3820000  12.9530000 -12.2760000 -32.2350000  14.1420000 -13.2000000
 -31.8890000  13.4440000 -12.8040000 -25.8680000  15.0790000  -4.6220000
 -26.0710000  14.7690000  -3.7400000 -25.3550000  14.3710000  -5.0120000
 -25.8280000  14.9480000  -4.5590000 -20.2800000   5.3480000 -15.9940000
 -21.1030000   4.8610000 -16.0420000 -20.5320000   6.2120000 -15.6660000
 -20.4170000   5.3960000 -15.9580000 -23.2230000  12.6810000  -1.9750000
 -23.8630000  12.1480000  -1.5030000 -23.2610000  12.3580000  -2.8760000
 -23.3100000  12.5710000  -2.0300000 -29.4560000  15.0490000  -1.8400000
 -29.8430000  14.6840000  -2.6360000 -30.1050000  15.6780000  -1.5250000
 -29.5900000  15.0820000  -1.9010000 -35.1930000   4.0290000  -9.0490000
 -35.2870000   3.5620000  -9.8790000 -34.3700000   3.7060000  -8.6840000
 -35.1010000   3.9280000  -9.1080000 -20.5560000  10.5180000  -4.1580000
 -21.4470000  10.7340000  -3.8800000 -20.2800000  11.2710000  -4.6800000
 -20.6350000  10.6420000  -4.1890000 -21.4880000  12.5400000 -13.7260000
 -21.4660000  12.6560000 -12.7760000 -21.3150000  13.4130000 -14.0770000
 -21.4630000  12.6670000 -13.6490000 -22.1130000  18.4800000 -13.4190000
 -22.3780000  18.4450000 -14.3380000 -21.4910000  17.7590000 -13.3200000
 -22.0670000  18.3830000 -13.5240000 -24.9390000  18.4760000 -15.9080000
 -25.4550000  17.7910000 -15.4820000 -25.4220000  19.2830000 -15.7340000
 -25.0670000  18.4910000 -15.8310000 -33.0300000   3.2870000  -7.7930000
 -32.5780000   2.7080000  -7.1790000 -32.4670000   3.3020000  -8.5660000
 -32.9000000   3.2150000  -7.8130000 -25.2030000  20.0190000  -7.6070000
 -24.4270000  19.8630000  -8.1460000 -25.2330000  20.9700000  -7.5010000
 -25.1070000  20.1210000  -7.6620000 -28.6330000  16.4310000 -13.3780000
 -28.8700000  15.6180000 -12.9340000 -29.4370000  16.7090000 -13.8150000
 -28.7650000  16.3630000 -13.3770000 -23.4390000  15.8510000  -2.0710000
 -23.1700000  14.9470000  -1.9110000 -24.3910000  15.8380000  -1.9700000
 -23.5260000  15.7340000  -2.0370000 -23.1300000  11.5570000  -4.3740000
 -23.7390000  10.8210000  -4.3180000 -23.5610000  12.1810000  -4.9570000
 -23.2620000  11.5420000  -4.4410000 -34.0320000  12.1450000  -5.9490000
 -34.4920000  12.4890000  -6.7140000 -33.9510000  11.2070000  -6.1210000
 -34.0800000  12.0690000  -6.0690000 -35.8360000   9.7860000 -13.7640000
 -34.8800000   9.8180000 -13.7370000 -36.1070000  10.7030000 -13.7260000
 -35.7470000   9.9070000 -13.7560000 -30.9950000   5.2450000  -0.8210000
 -31.7600000   4.8480000  -0.4030000 -31.2500000   6.1560000  -0.9690000
 -31.1260000   5.3110000  -0.7860000 -34.4760000   3.0760000 -15.7930000
 -34.1680000   3.1410000 -14.8890000 -35.3940000   2.8180000 -15.7140000
 -34.5550000   3.0510000 -15.6670000 -25.1670000   7.3370000 -13.4090000
 -24.5470000   7.7810000 -13.9880000 -25.9780000   7.8410000 -13.4940000
 -25.1910000   7.4590000 -13.4940000 -32.8750000  15.4730000 -14.1770000
 -33.5760000  15.8710000 -14.6940000 -32.4430000  14.8700000 -14.7830000
 -32.9090000  15.4470000 -14.3210000 -24.2740000  13.4160000  -6.3550000
 -24.4470000  13.3390000  -7.2930000 -23.4910000  13.9630000  -6.3000000
 -24.1960000  13.4760000  -6.4680000 -29.4560000   9.8000000 -12.0360000
 -28.9420000   9.2000000 -12.5760000 -29.7300000  10.4900000 -12.6400000
 -29.4260000   9.8110000 -12.1820000 -22.4280000  18.3670000  -2.7450000
 -22.0200000  18.5390000  -1.8970000 -22.6970000  17.4500000  -2.7000000
 -22.4100000  18.2720000  -2.6310000 -23.4150000   3.0290000  -4.4770000
 -23.7010000   3.8550000  -4.0860000 -23.6370000   3.1130000  -5.4040000
 -23.4800000   3.1460000  -4.5450000 -19.7620000  17.6590000 -15.7470000
 -19.1740000  17.4820000 -16.4820000 -20.3520000  18.3390000 -16.0710000
 -19.7620000  17.7230000 -15.8830000 -19.9210000  16.0140000  -0.7520000
 -20.6940000  16.0450000  -0.1880000 -19.3040000  16.6240000  -0.3460000
 -19.9410000  16.0960000  -0.6270000 -25.0200000  11.1410000  -0.6830000
 -25.8310000  11.1790000  -1.1900000 -24.6560000  10.2780000  -0.8780000
 -25.0780000  11.0360000  -0.7730000 -31.6800000   3.1840000 -10.1250000
 -31.8590000   3.7740000 -10.8570000 -31.1950000   2.4570000 -10.5150000
 -31.6410000   3.1670000 -10.2680000 -35.3940000  13.2810000  -7.7430000
 -35.1350000  13.9740000  -8.3510000 -36.2670000  13.5400000  -7.4440000
 -35.4720000  13.4030000  -7.7830000 -21.7070000  10.8710000 -10.7620000
 -20.8530000  10.5300000 -11.0320000 -21.6850000  10.8420000  -9.8060000
 -21.5950000  10.8230000 -10.6750000 -28.7760000   7.7820000  -2.8570000
 -29.5300000   7.4520000  -3.3460000 -28.9780000   7.5840000  -1.9430000
 -28.8980000   7.7140000  -2.8030000 -25.2260000   7.1050000  -0.7880000
 -26.0100000   7.0660000  -0.2400000 -24.5900000   6.5540000  -0.3340000
 -25.2450000   7.0300000  -0.6600000 -19.6300000   0.8970000 -11.2540000
 -20.2260000   0.5470000 -10.5920000 -18.9120000   0.2650000 -11.2890000
 -19.6140000   0.7720000 -11.1740000 -23.5600000  11.5420000 -15.5470000
 -23.1650000  11.8830000 -14.7450000 -23.0700000  11.9610000 -16.2540000
 -23.4470000  11.6390000 -15.5350000 -23.8320000   5.6280000  -3.5850000
 -23.1380000   5.8220000  -2.9530000 -24.4670000   6.3340000  -3.4670000
 -23.8250000   5.7430000  -3.4890000 -23.3660000  17.8980000  -6.1100000
 -23.8400000  18.7310000  -6.1170000 -23.8970000  17.3170000  -6.6540000
 -23.4950000  17.9300000  -6.1800000 -31.2550000   2.5690000 -24.1260000
 -31.0260000   2.5410000 -23.1970000 -31.8840000   1.8570000 -24.2390000
 -31.3050000   2.4740000 -24.0210000 -33.8550000  16.7550000 -23.8660000
 -34.8100000  16.6870000 -23.8980000 -33.6670000  17.0620000 -22.9800000
 -33.9530000  16.7860000 -23.7570000 -29.0900000  14.1990000 -30.7030000
 -29.2640000  14.3600000 -29.7750000 -29.8550000  13.7130000 -31.0090000
 -29.2100000  14.1570000 -30.6230000 -33.3390000   0.8550000 -24.6200000
 -33.8990000   1.3030000 -23.9860000 -33.4850000  -0.0760000 -24.4530000
 -33.4280000   0.7930000 -24.5180000 -32.5190000   9.0960000 -35.3720000
 -32.6730000   9.5530000 -34.5450000 -31.8080000   8.4860000 -35.1800000
 -32.4480000   9.0760000 -35.2420000 -29.1250000   4.3050000 -24.7670000
 -29.7280000   3.6640000 -24.3920000 -28.3350000   4.2360000 -24.2290000
 -29.1010000   4.2150000 -24.6500000 -28.5860000   0.7420000 -18.4890000
 -27.6950000   0.5130000 -18.7530000 -29.1090000   0.6210000 -19.2820000
 -28.5380000   0.6980000 -18.6240000 -22.3580000  15.2550000 -37.1860000
 -23.2200000  15.5830000 -37.4420000 -22.4550000  14.3030000 -37.1870000
 -22.4810000  15.1750000 -37.2190000 -35.6320000  15.3520000 -30.4090000
 -35.5940000  16.2450000 -30.7530000 -36.4320000  15.3310000 -29.8830000
 -35.7300000  15.4640000 -30.3860000 -30.9210000  17.1420000 -33.7200000
 -31.7200000  16.6150000 -33.7100000 -30.5780000  17.0390000 -34.6070000
 -30.9800000  17.0610000 -33.8320000 -26.7010000   4.1310000 -23.4990000
 -26.5230000   3.2490000 -23.1730000 -26.3830000   4.7110000 -22.8070000
 -26.6370000   4.0920000 -23.3680000 -27.0140000  12.1270000 -31.2530000
 -27.4400000  11.5200000 -31.8570000 -27.6760000  12.7940000 -31.0750000
 -27.1530000  12.1350000 -31.3070000 -21.2610000   2.7590000 -32.0000000
 -21.1940000   1.8120000 -32.1240000 -20.3920000   3.0240000 -31.6990000
 -21.1410000   2.6720000 -31.9770000 -20.1420000   7.0500000 -30.1590000
 -20.9210000   7.1600000 -29.6140000 -19.7980000   7.9360000 -30.2680000
 -20.1980000   7.1770000 -30.1030000 -29.0460000   3.1780000 -36.0110000
 -29.3120000   2.7150000 -35.2160000 -29.0300000   2.5010000 -36.6870000
 -29.0780000   3.0320000 -35.9950000 -28.8110000  10.3660000 -22.7270000
 -28.9400000   9.5010000 -22.3380000 -28.3680000  10.1910000 -23.5580000
 -28.7710000  10.2330000 -22.7840000 -25.9350000  11.3180000 -35.7080000
 -25.1650000  11.3390000 -35.1410000 -25.6160000  10.9510000 -36.5320000
 -25.7960000  11.2740000 -35.7410000 -20.2000000  10.9550000 -33.9780000
 -20.5650000  11.5960000 -33.3680000 -20.9650000  10.5330000 -34.3700000
 -20.3440000  10.9830000 -33.9500000 -22.2170000  12.5550000 -36.9610000
 -22.1750000  12.4210000 -37.9080000 -21.3320000  12.8220000 -36.7180000
 -22.0980000  12.5720000 -37.0510000 -21.8750000   2.9850000 -34.8730000
 -21.7420000   2.8410000 -33.9360000 -22.7420000   3.3840000 -34.9330000
 -21.9680000   3.0170000 -34.7600000 -25.2240000  14.7220000 -30.3720000
 -25.0480000  15.5720000 -30.7750000 -25.9840000  14.3850000 -30.8460000
 -25.2980000  14.7880000 -30.4840000 -25.4350000  18.0470000 -29.1200000
 -24.8480000  18.7840000 -29.2950000 -26.2160000  18.2330000 -29.6390000
 -25.4590000  18.1650000 -29.2090000 -33.1130000   5.3020000 -30.6000000
 -33.5190000   5.3010000 -31.4670000 -33.5980000   5.9650000 -30.1090000
 -33.2260000   5.3870000 -30.6480000 -34.9930000   1.6980000 -22.5820000
 -34.7870000   2.5960000 -22.3250000 -35.3500000   1.2970000 -21.7890000
 -35.0120000   1.7610000 -22.4480000 -33.6860000   2.4890000 -31.8820000
 -34.4430000   2.4760000 -31.2970000 -33.1530000   1.7450000 -31.6010000
 -33.7140000   2.3920000 -31.7710000 -26.6450000   6.1870000 -21.5830000
 -26.0600000   6.5000000 -20.8940000 -27.3710000   6.8120000 -21.5830000
 -26.6630000   6.3070000 -21.4950000 -29.0260000   6.6880000 -32.0510000
 -29.8510000   6.6700000 -32.5360000 -29.2760000   6.5020000 -31.1460000
 -29.1630000   6.6620000 -31.9970000 -31.9110000  16.3530000 -27.4340000
 -32.1730000  15.9780000 -26.5930000 -31.1800000  15.8080000 -27.7230000
 -31.8510000  16.2350000 -27.3640000 -33.6730000  14.5460000 -28.7190000
 -34.3970000  14.8490000 -29.2670000 -33.0800000  15.2960000 -28.6710000
 -33.6900000  14.6810000 -28.7830000 -34.2010000   8.3100000 -37.3810000
 -34.8030000   9.0470000 -37.4770000 -33.5710000   8.6000000 -36.7200000
 -34.1970000   8.4410000 -37.3090000 -29.7730000  16.7720000 -36.0880000
 -29.3150000  15.9500000 -35.9160000 -29.0750000  17.4120000 -36.2270000
 -29.6250000  16.7490000 -36.0840000 -31.0500000   7.2630000 -27.1060000
 -30.1690000   7.5550000 -26.8740000 -30.9650000   6.9290000 -27.9990000
 -30.9260000   7.2580000 -27.1910000 -35.0860000  15.0210000 -18.4350000
 -34.6030000  15.5820000 -19.0420000 -35.5280000  14.3850000 -18.9960000
 -35.0800000  15.0120000 -18.5840000 -31.4600000  16.7570000 -19.6370000
 -30.8850000  16.6700000 -18.8760000 -31.5010000  17.6990000 -19.7990000
 -31.3910000  16.8660000 -19.5610000 -26.7530000   3.0820000 -28.9220000
 -27.7050000   3.0190000 -28.8510000 -26.4250000   2.3540000 -28.3940000
 -26.8340000   2.9810000 -28.8450000 -21.6250000  11.0900000 -26.8000000
 -21.1850000  11.5970000 -26.1170000 -22.2960000  10.5930000 -26.3340000
 -21.6530000  11.0910000 -26.6530000 -20.4090000  12.8580000 -24.5720000
 -21.1230000  13.4630000 -24.7710000 -19.6930000  13.4210000 -24.2750000
 -20.4090000  13.0070000 -24.5590000 -31.1050000  10.6110000 -19.7360000
 -31.2620000   9.6670000 -19.7720000 -31.1930000  10.9030000 -20.6430000
 -31.1370000  10.5270000 -19.8570000 -26.8970000  13.9190000 -35.6340000
 -26.5930000  13.0260000 -35.4780000 -26.3700000  14.4590000 -35.0450000
 -26.7910000  13.8740000 -35.5390000 -24.2740000   4.4070000 -35.0580000
 -24.1700000   4.7510000 -34.1710000 -24.4050000   5.1830000 -35.6030000
 -24.2780000   4.5500000 -35.0140000 -21.6320000   5.2550000 -27.7310000
 -20.7200000   5.2660000 -27.4380000 -21.6320000   4.6700000 -28.4890000
 -21.5150000   5.1810000 -27.7900000 -23.7870000   9.5920000 -25.8800000
 -24.6620000   9.3350000 -26.1700000 -23.4350000   8.8090000 -25.4560000
 -23.8550000   9.4590000 -25.8630000 -34.0780000  16.5080000 -20.7220000
 -34.3300000  17.4120000 -20.5310000 -33.1730000  16.4430000 -20.4190000
 -33.9940000  16.6160000 -20.6590000 -32.0450000   1.5810000 -37.0710000
 -31.7030000   1.5900000 -36.1770000 -32.5300000   2.4030000 -37.1490000
 -32.0640000   1.6880000 -36.9670000 -29.4420000   6.0920000 -29.4170000
 -29.3560000   5.3080000 -28.8740000 -29.0030000   6.7790000 -28.9170000
 -29.3750000   6.0800000 -29.2840000 -20.7800000   3.7100000 -20.0770000
 -21.6800000   3.3820000 -20.0820000 -20.4550000   3.5330000 -20.9590000
 -20.8550000   3.6450000 -20.1900000 -20.7650000  14.8320000 -34.0810000
 -20.6430000  15.7070000 -34.4490000 -20.5550000  14.2380000 -34.8020000
 -20.7220000  14.8680000 -34.2210000 -22.3460000   0.2310000 -35.2030000
 -22.2180000   1.1460000 -35.4550000 -23.2950000   0.1360000 -35.1180000
 -22.4510000   0.3360000 -35.2240000 -26.3160000  14.1160000 -20.9470000
 -25.7350000  13.9520000 -20.2060000 -26.9100000  14.8020000 -20.6390000
 -26.3180000  14.1830000 -20.8130000 -30.0140000  14.5800000 -28.2080000
 -30.4940000  13.7720000 -28.0310000 -29.2850000  14.5660000 -27.5890000
 -29.9820000  14.4750000 -28.1060000 -19.1710000   1.5690000 -37.2020000
 -19.3470000   2.4100000 -37.6230000 -19.9800000   1.0700000 -37.3160000
 -19.2970000   1.6130000 -37.2700000 -16.6020000   7.4970000 -29.8240000
 -16.5880000   7.1840000 -28.9190000 -16.6520000   8.4500000 -29.7470000
 -16.6060000   7.5790000 -29.6980000 -27.2100000   5.4330000 -35.9410000
 -27.8350000   4.7090000 -35.9170000 -26.9910000   5.5920000 -35.0230000
 -27.2610000   5.3610000 -35.8210000 -30.4710000   7.0810000 -23.8210000
 -31.3160000   6.7610000 -23.5040000 -29.9980000   6.2900000 -24.0800000
 -30.5200000   6.9390000 -23.8130000 -33.5450000  12.2670000 -19.4870000
 -32.7330000  11.7790000 -19.6290000 -33.8140000  12.5440000 -20.3630000
 -33.4760000  12.2400000 -19.6180000 -34.6370000  16.8390000 -34.3640000
 -35.2190000  17.3370000 -33.7910000 -34.4080000  17.4500000 -35.0640000
 -34.6820000  16.9810000 -34.3800000 -20.7440000   2.9480000 -22.6460000
 -21.6100000   2.7840000 -23.0170000 -20.1610000   2.3560000 -23.1240000
 -20.7800000   2.8510000 -22.7550000 -21.0370000   8.3980000 -35.9400000
 -21.4940000   8.1570000 -35.1340000 -20.1110000   8.2580000 -35.7410000
 -20.9770000   8.3490000 -35.8110000 -31.2820000  11.3070000 -22.4590000
 -30.4030000  10.9340000 -22.5110000 -31.8200000  10.7260000 -22.9960000
 -31.2380000  11.1850000 -22.5340000 -22.2930000  15.0180000 -24.1020000
 -22.6450000  14.9150000 -23.2170000 -22.1450000  15.9600000 -24.1920000
 -22.3200000  15.1250000 -24.0000000 -20.1560000  16.7850000 -22.2230000
 -19.9580000  16.3900000 -21.3730000 -20.8280000  17.4400000 -22.0320000
 -20.2170000  16.8180000 -22.0900000 -22.9120000   4.1150000 -30.3520000
 -22.2160000   3.7290000 -30.8850000 -23.5220000   3.3930000 -30.1970000
 -22.9010000   3.9730000 -30.4010000 -24.8380000   9.5640000 -22.8100000
 -25.3950000   9.1700000 -23.4820000 -25.4150000  10.1740000 -22.3500000
 -24.9830000   9.5920000 -22.8370000 -20.9240000   8.8250000 -19.6160000
 -21.7470000   9.1650000 -19.9650000 -21.0690000   8.7690000 -18.6710000
 -21.0470000   8.8610000 -19.5400000 -27.0110000   5.5510000 -33.2770000
 -27.8350000   5.8340000 -32.8810000 -26.3340000   5.9370000 -32.7220000
 -27.0300000   5.6360000 -33.1550000 -34.0000000   9.1420000 -25.1840000
 -34.3760000   9.0150000 -24.3140000 -34.5630000   8.6310000 -25.7660000
 -34.1190000   9.0610000 -25.1470000 -24.9920000  10.6520000 -29.7290000
 -24.4470000  11.1530000 -29.1220000 -25.6860000  11.2590000 -29.9860000
 -25.0110000  10.7930000 -29.6840000 -22.2880000   7.8980000 -33.5360000
 -22.3320000   8.5170000 -32.8060000 -22.6550000   7.0870000 -33.1840000
 -22.3400000   7.8740000 -33.3970000 -27.5380000   8.7620000 -33.0570000
 -28.2100000   8.0810000 -33.0270000 -27.4600000   8.9790000 -33.9860000
 -27.6150000   8.7030000 -33.1720000 -33.8510000   3.6150000 -19.0940000
 -34.0050000   3.8950000 -19.9960000 -34.0890000   4.3750000 -18.5630000
 -33.9020000   3.7480000 -19.1410000 -26.3530000  17.7410000 -23.9390000
 -26.9010000  17.6720000 -24.7190000 -25.9880000  16.8640000 -23.8230000
 -26.3750000  17.6200000 -24.0240000 -31.9180000   7.7360000 -19.9880000
 -32.0340000   7.4520000 -20.8950000 -32.8100000   7.8390000 -19.6550000
 -32.0480000   7.7130000 -20.0620000 -32.8730000   6.0630000 -25.1420000
 -33.4640000   5.3240000 -25.2940000 -32.2620000   6.0350000 -25.8770000
 -32.8700000   5.9650000 -25.2560000 -31.4880000  12.2550000 -27.1100000
 -31.5280000  11.3000000 -27.1470000 -31.9430000  12.4830000 -26.3000000
 -31.5510000  12.1620000 -27.0110000 -23.5230000   8.9080000 -20.4280000
 -24.2150000   8.2680000 -20.2600000 -23.7310000   9.2640000 -21.2910000
 -23.6380000   8.8710000 -20.5170000 -35.5720000  12.4550000 -31.0890000
 -34.8930000  12.1750000 -30.4750000 -35.4750000  13.4050000 -31.1380000
 -35.4730000  12.5410000 -31.0160000 -30.1590000  11.1910000 -36.0020000
 -30.5410000  10.8820000 -36.8230000 -29.9190000  12.1020000 -36.1770000
 -30.1760000  11.2680000 -36.1290000 -31.3310000   1.4610000 -34.3200000
 -31.0860000   0.5860000 -34.0190000 -31.5460000   1.9380000 -33.5190000
 -31.3280000   1.4100000 -34.1790000 -26.0990000   3.2100000 -31.7820000
 -26.3930000   3.9250000 -32.3460000 -26.3700000   3.4710000 -30.9020000
 -26.1710000   3.3350000 -31.7420000 -27.6450000  14.8660000 -26.7000000
 -27.7100000  14.3460000 -25.8980000 -27.1010000  15.6150000 -26.4570000
 -27.5850000  14.8950000 -26.5660000 -22.1460000  13.7620000 -30.0810000
 -23.0610000  13.7720000 -30.3640000 -22.0240000  12.8940000 -29.6960000
 -22.2480000  13.6520000 -30.0680000 -34.4930000   5.7260000 -36.2860000
 -35.4180000   5.4830000 -36.2480000 -34.4970000   6.6460000 -36.5510000
 -34.6110000   5.8130000 -36.3150000 -32.5240000  10.0790000 -32.9970000
 -31.7010000  10.5650000 -33.0350000 -32.4730000   9.5840000 -32.1800000
 -32.4120000  10.0780000 -32.8980000 -35.8330000  17.9540000 -28.9210000
 -36.3750000  18.3770000 -28.2540000 -34.9350000  18.1510000 -28.6590000
 -35.7890000  18.0340000 -28.8020000 -30.2300000  11.7160000 -32.9950000
 -30.7530000  12.4190000 -32.6090000 -30.2170000  11.9120000 -33.9310000
 -30.2940000  11.8310000 -33.0650000 -23.1860000   6.5830000 -36.8310000
 -22.7090000   6.2300000 -37.5800000 -22.6850000   7.3550000 -36.5680000
 -23.0610000   6.6370000 -36.8930000 -34.2920000  12.0190000 -22.0010000
 -34.3300000  12.3360000 -22.9030000 -35.1650000  11.6600000 -21.8360000
 -34.4090000  12.0130000 -22.0950000 -30.3850000  13.7590000 -23.4260000
 -31.1670000  14.1650000 -23.7950000 -30.6720000  12.8880000 -23.1530000
 -30.5210000  13.6990000 -23.4380000 -21.3340000  -2.3370000 -27.4320000
 -21.1890000  -1.9320000 -26.5770000 -22.2800000  -2.2690000 -27.5710000
 -21.4360000  -2.2770000 -27.3400000 -31.3590000   9.7160000 -24.9470000
 -31.0340000   8.9130000 -24.5400000 -32.2270000   9.4840000 -25.2730000
 -31.4280000   9.5840000 -24.9370000 -35.7420000  10.6500000 -18.9780000
 -34.9400000  11.1600000 -19.0880000 -36.1920000  11.0680000 -18.2440000
 -35.6970000  10.7690000 -18.8980000 -25.2460000   7.7980000 -29.7180000
 -24.7480000   7.5910000 -30.5090000 -25.0620000   8.7230000 -29.5540000
 -25.1590000   7.8900000 -29.7980000 -30.6210000   6.5440000 -35.9770000
 -31.1030000   5.7270000 -36.1080000 -30.1870000   6.7030000 -36.8150000
 -30.6280000   6.4600000 -36.1010000 -20.5580000  18.5700000 -27.6500000
 -20.7050000  17.6270000 -27.5690000 -19.9050000  18.7680000 -26.9790000
 -20.4940000  18.4740000 -27.5540000 -19.2250000  14.8480000 -28.8640000
 -20.0700000  15.2610000 -28.6800000 -19.3570000  13.9260000 -28.6460000
 -19.3500000  14.7830000 -28.8130000 -27.9250000   8.3940000 -29.0950000
 -28.3320000   9.1540000 -29.5110000 -27.0640000   8.3290000 -29.5050000
 -27.8670000   8.4830000 -29.2010000 -23.3880000   9.6330000 -31.6130000
 -22.7150000  10.0450000 -31.0730000 -24.1980000  10.0790000 -31.3670000
 -23.4050000   9.7430000 -31.5130000 -35.2350000  10.1240000 -28.1100000
 -34.2780000  10.1080000 -28.1290000 -35.4800000   9.3100000 -27.6700000
 -35.1430000  10.0180000 -28.0560000 -24.9310000   4.1340000 -25.5710000
 -25.3850000   4.5760000 -26.2890000 -25.4730000   4.3090000 -24.8020000
 -25.0580000   4.2130000 -25.5650000 -19.7660000   9.0620000 -26.6270000
 -20.1550000   8.5880000 -25.8910000 -20.3020000   9.8510000 -26.7130000
 -19.8850000   9.1020000 -26.5440000 -26.3920000   5.6100000 -27.7610000
 -25.7660000   6.0600000 -28.3280000 -26.5340000   4.7630000 -28.1850000
 -26.3300000   5.5590000 -27.8880000 -27.8570000  13.4870000 -24.2620000
 -27.4650000  14.3080000 -23.9660000 -28.7700000  13.5420000 -23.9800000
 -27.9230000  13.5990000 -24.1880000 -26.3680000   2.3550000 -35.0050000
 -27.1280000   2.6030000 -35.5330000 -25.8140000   3.1350000 -35.0040000
 -26.3950000   2.4870000 -35.0720000 -33.8330000   5.6480000 -33.2880000
 -33.9230000   5.3770000 -34.2010000 -34.7320000   5.8050000 -32.9950000
 -33.9610000   5.6340000 -33.3670000 -24.2460000   1.5390000 -30.4920000
 -24.9090000   1.9450000 -31.0520000 -23.5510000   1.2760000 -31.0950000
 -24.2420000   1.5580000 -30.6410000 -22.6340000   6.7710000 -25.1130000
 -22.8980000   6.1190000 -24.4630000 -22.4150000   6.2580000 -25.8910000
 -22.6400000   6.6220000 -25.1290000 -31.8870000   8.5640000 -30.8880000
 -31.6990000   7.8120000 -31.4500000 -31.0320000   8.9550000 -30.7180000
 -31.7550000   8.5180000 -30.9380000 -30.2310000   3.4240000 -21.6480000
 -29.3100000   3.5000000 -21.4040000 -30.6830000   4.0410000 -21.0730000
 -30.1710000   3.5120000 -21.5440000 -33.2410000   0.4340000 -28.7290000
 -33.0700000   1.3550000 -28.5300000 -32.6740000  -0.0500000 -28.1280000
 -33.1470000   0.4900000 -28.6270000 -29.4370000  13.7710000 -36.6050000
 -28.5930000  13.7330000 -36.1540000 -29.2150000  13.9760000 -37.5130000
 -29.3000000  13.7920000 -36.6630000 -32.3870000   9.5610000 -28.3360000
 -32.1300000   9.1430000 -29.1580000 -32.3030000   8.8690000 -27.6800000
 -32.3420000   9.4190000 -28.3570000 -25.0750000  14.0160000 -27.8770000
 -24.9760000  14.2630000 -28.7970000 -25.9280000  14.3660000 -27.6250000
 -25.1710000  14.0920000 -27.9620000 -27.6850000  18.4300000 -30.5380000
 -27.8690000  17.6030000 -30.9840000 -27.9960000  19.1030000 -31.1430000
 -27.7480000  18.4100000 -30.6730000 -21.5800000   0.3000000 -18.9130000
 -22.1210000  -0.2150000 -18.3150000 -22.0450000   1.1330000 -19.0000000
 -21.7090000   0.3410000 -18.8470000 -26.0960000  17.6650000 -37.4480000
 -25.9390000  18.5040000 -37.8810000 -25.8350000  17.8120000 -36.5390000
 -26.0420000  17.7910000 -37.3870000 -23.9860000  16.4420000 -27.3380000
 -24.5300000  17.0420000 -27.8490000 -24.3780000  15.5810000 -27.4840000
 -24.1050000  16.4090000 -27.4220000 -20.2110000   7.8510000 -23.7150000
 -21.1070000   7.5260000 -23.8020000 -20.3110000   8.7460000 -23.3900000
 -20.3390000   7.9240000 -23.6840000 -29.8950000  18.8100000 -28.3650000
 -29.9280000  18.1230000 -27.7000000 -29.4180000  18.4150000 -29.0950000
 -29.8390000  18.6720000 -28.3730000 -28.0150000   9.5380000 -35.6770000
 -27.2850000  10.1580000 -35.6880000 -28.7970000  10.0890000 -35.7080000
 -28.0220000   9.6880000 -35.6830000 -28.3830000   6.9190000 -26.5610000
 -28.8320000   6.1650000 -26.1790000 -27.6610000   6.5390000 -27.0610000
 -28.3480000   6.7740000 -26.5760000 -26.8480000  11.0430000 -24.8490000
 -27.1250000  11.8670000 -24.4470000 -25.8970000  11.0300000 -24.7400000
 -26.7610000  11.1470000 -24.7840000 -31.3600000   3.6560000 -32.5780000
 -31.5090000   4.5990000 -32.6560000 -32.1530000   3.3240000 -32.1540000
 -31.4800000   3.7340000 -32.5340000 -27.4920000  18.2660000 -26.6000000
 -26.7030000  18.8040000 -26.6540000 -28.0920000  18.6580000 -27.2340000
 -27.4680000  18.3850000 -26.6880000 -27.7100000   4.0000000 -20.1590000
 -28.1750000   4.5980000 -19.5750000 -27.1150000   4.5640000 -20.6540000
 -27.6930000   4.1480000 -20.1480000 -32.1050000   4.1450000 -35.9830000
 -33.0220000   3.9300000 -35.8170000 -31.6300000   3.7570000 -35.2480000
 -32.1610000   4.0680000 -35.8680000 -35.4630000   8.8910000 -22.7120000
 -36.1420000   9.5300000 -22.4920000 -35.8720000   8.0420000 -22.5490000
 -35.6030000   8.8640000 -22.6630000 -24.5030000  16.8960000 -31.7480000
 -24.8700000  17.4770000 -31.0830000 -23.6110000  17.2190000 -31.8820000
 -24.4350000  17.0120000 -31.6800000 -26.3970000   9.3330000 -26.7630000
 -26.6650000   9.9760000 -26.1060000 -27.1960000   9.1510000 -27.2590000
 -26.5340000   9.3920000 -26.7430000 -26.4200000   7.6670000 -24.2010000
 -26.5840000   7.9760000 -25.0920000 -27.2820000   7.4030000 -23.8780000
 -26.5510000   7.6730000 -24.2730000 -26.1980000   1.8880000 -20.0630000
 -26.2010000   1.5980000 -20.9750000 -26.8700000   2.5690000 -20.0260000
 -26.2850000   1.9380000 -20.1750000 -34.5400000   0.5510000 -36.0550000
 -34.5390000   1.2930000 -35.4510000 -34.0360000   0.8550000 -36.8090000
 -34.4750000   0.6850000 -36.0740000 -33.6230000  12.5870000 -35.7710000
 -33.5370000  12.5360000 -36.7230000 -34.1770000  13.3550000 -35.6220000
 -33.6830000  12.6790000 -35.8740000 -26.4880000  11.3300000 -21.6650000
 -27.3060000  11.1740000 -22.1360000 -26.4400000  12.2820000 -21.5760000
 -26.5860000  11.4320000 -21.7140000 -22.1380000   6.0260000 -20.4340000
 -21.4250000   5.3940000 -20.3390000 -21.6980000   6.8630000 -20.5800000
 -21.9910000   6.0520000 -20.4410000 -20.6650000  17.3030000 -24.8650000
 -20.3840000  17.2070000 -23.9550000 -21.4460000  17.8540000 -24.8160000
 -20.7300000  17.3610000 -24.7420000 -33.0130000  11.9650000 -29.8060000
 -33.1010000  12.7450000 -29.2570000 -32.9420000  11.2410000 -29.1830000
 -33.0160000  11.9720000 -29.6560000 -32.9120000   7.1060000 -22.6220000
 -33.0030000   6.9860000 -23.5670000 -33.6350000   7.6840000 -22.3840000
 -33.0160000   7.1650000 -22.7130000 -31.8300000   0.6220000 -31.1700000
 -32.2350000   0.2910000 -30.3680000 -31.7220000  -0.1520000 -31.7220000
 -31.8670000   0.4810000 -31.1380000 -20.7440000  16.0810000 -31.4300000
 -20.6740000  15.4520000 -30.7130000 -20.6780000  15.5490000 -32.2230000
 -20.7270000  15.9330000 -31.4400000 -31.2860000   6.6680000 -33.2840000
 -30.9130000   6.6030000 -34.1630000 -32.1910000   6.3720000 -33.3850000
 -31.3550000   6.6210000 -33.4090000 -31.5870000  13.8250000 -34.8500000
 -32.3200000  13.3360000 -35.2260000 -30.9280000  13.8380000 -35.5420000
 -31.5970000  13.7640000 -34.9860000 -29.1410000   3.5650000 -30.8990000
 -29.9930000   3.4270000 -31.3110000 -29.0910000   4.5120000 -30.7630000
 -29.2430000   3.6690000 -30.9340000 -34.2690000   4.2330000 -21.7080000
 -33.4780000   4.2660000 -22.2450000 -34.6300000   5.1190000 -21.7560000
 -34.2140000   4.3500000 -21.7830000 -28.0960000   7.2360000 -37.6600000
 -28.1150000   7.8860000 -36.9580000 -27.7410000   6.4480000 -37.2480000
 -28.0530000   7.2190000 -37.5180000 -23.1130000   2.4860000 -20.2390000
 -23.0520000   2.1390000 -21.1290000 -24.0530000   2.5340000 -20.0650000
 -23.2260000   2.4480000 -20.3310000 -32.7260000  14.5340000 -24.8810000
 -33.2960000  15.2210000 -24.5340000 -33.1780000  13.7180000 -24.6670000
 -32.8570000  14.5180000 -24.8090000 -26.1350000  16.1150000 -33.7900000
 -26.8200000  16.0430000 -33.1250000 -25.3360000  16.2930000 -33.2930000
 -26.1200000  16.1280000 -33.6410000 -28.4230000   1.7390000 -32.8080000
 -28.6480000   2.5240000 -32.3090000 -27.5240000   1.8910000 -33.1000000
 -28.3360000   1.8590000 -32.7810000 -22.9960000   1.4590000 -27.9380000
 -22.1250000   1.0660000 -27.8810000 -23.0950000   1.6900000 -28.8610000
 -22.8970000   1.4380000 -28.0490000 -26.0890000   1.7260000 -22.8040000
 -26.3480000   0.9500000 -23.3010000 -25.1320000   1.7310000 -22.8520000
 -26.0000000   1.6270000 -22.8740000 -22.9710000   5.3240000 -32.6900000
 -23.1920000   5.0740000 -31.7920000 -22.1550000   4.8580000 -32.8730000
 -22.8950000   5.2320000 -32.5980000 -25.1250000  15.0870000 -37.5430000
 -25.5250000  15.9550000 -37.4930000 -25.6010000  14.5660000 -36.8960000
 -25.2370000  15.1320000 -37.4540000 -29.1680000   3.8740000 -27.5230000
 -30.0200000   3.4430000 -27.6100000 -29.0700000   4.0210000 -26.5820000
 -29.2650000   3.8380000 -27.4140000 -30.5370000   0.8950000 -20.3720000
 -31.0900000   1.2060000 -19.6560000 -30.4760000   1.6410000 -20.9690000
 -30.6010000   1.0300000 -20.3570000 -31.7460000  13.4080000 -31.6870000
 -32.3820000  12.9530000 -31.1360000 -32.2350000  14.1420000 -32.0600000
 -31.8890000  13.4440000 -31.6640000 -25.8680000  15.0790000 -23.4820000
 -26.0710000  14.7690000 -22.6000000 -25.3550000  14.3710000 -23.8720000
 -25.8280000  14.9480000 -23.4190000 -20.2800000   5.3480000 -34.8540000
 -21.1030000   4.8610000 -34.9020000 -20.5320000   6.2120000 -34.5260000
 -20.4170000   5.3960000 -34.8180000 -23.2230000  12.6810000 -20.8350000
 -23.8630000  12.1480000 -20.3630000 -23.2610000  12.3580000 -21.7360000
 -23.3100000  12.5710000 -20.8900000 -29.4560000  15.0490000 -20.7000000
 -29.8430000  14.6840000 -21.4960000 -30.1050000  15.6780000 -20.3850000
 -29.5900000  15.0820000 -20.7610000 -35.1930000   4.0290000 -27.9090000
 -35.2870000   3.5620000 -28.7390000 -34.3700000   3.7060000 -27.5440000
 -35.1010000   3.9280000 -27.9680000 -20.5560000  10.5180000 -23.0180000
 -21.4470000  10.7340000 -22.7400000 -20.2800000  11.2710000 -23.5400000
 -20.6350000  10.6420000 -23.0490000 -21.4880000  12.5400000 -32.5860000
 -21.4660000  12.6560000 -31.6360000 -21.3150000  13.4130000 -32.9370000
 -21.4630000  12.6670000 -32.5090000 -22.1130000  18.4800000 -32.2790000
 -22.3780000  18.4450000 -33.1980000 -21.4910000  17.7590000 -32.1800000
 -22.0670000  18.3830000 -32.3840000 -24.9390000  18.4760000 -34.7680000
 -25.4550000  17.7910000 -34.3420000 -25.4220000  19.2830000 -34.5940000
 -25.0670000  18.4910000 -34.6910000 -33.0300000   3.2870000 -26.6530000
 -32.5780000   2.7080000 -26.0390000 -32.4670000   3.3020000 -27.4260000
 -32.9000000   3.2150000 -26.6730000 -25.2030000  20.0190000 -26.4670000
 -24.4270000  19.8630000 -27.0060000 -25.2330000  20.9700000 -26.3610000
 -25.1070000  20.1210000 -26.5220000 -28.6330000  16.4310000 -32.2380000
 -28.8700000  15.6180000 -31.7940000 -29.4370000  16.7090000 -32.6750000
 -28.7650000  16.3630000 -32.2370000 -23.4390000  15.8510000 -20.9310000
 -23.1700000  14.9470000 -20.7710000 -24.3910000  15.8380000 -20.8300000
 -23.5260000  15.7340000 -20.8970000 -23.1300000  11.5570000 -23.2340000
 -23.7390000  10.8210000 -23.1780000 -23.5610000  12.1810000 -23.8170000
 -23.2620000  11.5420000 -23.3010000 -34.0320000  12.1450000 -24.8090000
 -34.4920000  12.4890000 -25.5740000 -33.9510000  11.2070000 -24.9810000
 -34.0800000  12.0690000 -24.9290000 -35.8360000   9.7860000 -32.6240000
 -34.8800000   9.8180000 -32.5970000 -36.1070000  10.7030000 -32.5860000
 -35.7470000   9.9070000 -32.6160000 -30.9950000   5.2450000 -19.6810000
 -31.7600000   4.8480000 -19.2630000 -31.2500000   6.1560000 -19.8290000
 -31.1260000   5.3110000 -19.6460000 -34.4760000   3.0760000 -34.6530000
 -34.1680000   3.1410000 -33.7490000 -35.3940000   2.8180000 -34.5740000
 -34.5550000   3.0510000 -34.5270000 -25.1670000   7.3370000 -32.2690000
 -24.5470000   7.7810000 -32.8480000 -25.9780000   7.8410000 -32.3540000
 -25.1910000   7.4590000 -32.3540000 -32.8750000  15.4730000 -33.0370000
 -33.5760000  15.8710000 -33.5540000 -32.4430000  14.8700000 -33.6430000
 -32.9090000  15.4470000 -33.1810000 -24.2740000  13.4160000 -25.2150000
 -24.4470000  13.3390000 -26.1530000 -23.4910000  13.9630000 -25.1600000
 -24.1960000  13.4760000 -25.3280000 -29.4560000   9.8000000 -30.8960000
 -28.9420000   9.2000000 -31.4360000 -29.7300000  10.4900000 -31.5000000
 -29.4260000   9.8110000 -31.0420000 -22.4280000  18.3670000 -21.6050000
 -22.0200000  18.5390000 -20.7570000 -22.6970000  17.4500000 -21.5600000
 -22.4100000  18.2720000 -21.4910000 -23.4150000   3.0290000 -23.3370000
 -23.7010000   3.8550000 -22.9460000 -23.6370000   3.1130000 -24.2640000
 -23.4800000   3.1460000 -23.4050000 -19.7620000  17.6590000 -34.6070000
 -19.1740000  17.4820000 -35.3420000 -20.3520000  18.3390000 -34.9310000
 -19.7620000  17.7230000 -34.7430000 -19.9210000  16.0140000 -19.6120000
 -20.6940000  16.0450000 -19.0480000 -19.3040000  16.6240000 -19.2060000
 -19.9410000  16.0960000 -19.4870000 -19.3990000   4.3650000 -30.8510000
 -18.8170000   4.8500000 -31.4370000 -19.9650000   5.0350000 -30.4680000
 -19.3970000   4.5130000 -30.8770000 -25.0200000  11.1410000 -19.5430000
 -25.8310000  11.1790000 -20.0500000 -24.6560000  10.2780000 -19.7380000
 -25.0780000  11.0360000 -19.6330000 -31.6800000   3.1840000 -28.9850000
 -31.8590000   3.7740000 -29.7170000 -31.1950000   2.4570000 -29.3750000
 -31.6410000   3.1670000 -29.1280000 -35.3940000  13.2810000 -26.6030000
 -35.1350000  13.9740000 -27.2110000 -36.2670000  13.5400000 -26.3040000
 -35.4720000  13.4030000 -26.6430000 -21.7070000  10.8710000 -29.6220000
 -20.8530000  10.5300000 -29.8920000 -21.6850000  10.8420000 -28.6660000
 -21.5950000  10.8230000 -29.5350000 -28.7760000   7.7820000 -21.7170000
 -29.5300000   7.4520000 -22.2060000 -28.9780000   7.5840000 -20.8030000
 -28.8980000   7.7140000 -21.6630000 -25.2260000   7.1050000 -19.6480000
 -26.0100000   7.0660000 -19.1000000 -24.5900000   6.5540000 -19.1940000
 -25.2450000   7.0300000 -19.5200000 -19.6300000   0.8970000 -30.1140000
 -20.2260000   0.5470000 -29.4520000 -18.9120000   0.2650000 -30.1490000
 -19.6140000   0.7720000 -30.0340000 -23.5600000  11.5420000 -34.4070000
 -23.1650000  11.8830000 -33.6050000 -23.0700000  11.9610000 -35.1140000
 -23.4470000  11.6390000 -34.3950000 -23.8320000   5.6280000 -22.4450000
 -23.1380000   5.8220000 -21.8130000 -24.4670000   6.3340000 -22.3270000
 -23.8250000   5.7430000 -22.3490000 -23.3660000  17.8980000 -24.9700000
 -23.8400000  18.7310000 -24.9770000 -23.8970000  17.3170000 -25.5140000
 -23.4950000  17.9300000 -25.0400000 -31.2550000   2.5690000 -42.9860000
 -31.0260000   2.5410000 -42.0570000 -31.8840000   1.8570000 -43.0990000
 -31.3050000   2.4740000 -42.8810000 -33.8550000  16.7550000 -42.7260000
 -34.8100000  16.6870000 -42.7580000 -33.6670000  17.0620000 -41.8400000
 -33.9530000  16.7860000 -42.6170000 -33.3390000   0.8550000 -43.4800000
 -33.8990000   1.3030000 -42.8460000 -33.4850000  -0.0760000 -43.3130000
 -33.4280000   0.7930000 -43.3780000 -29.1250000   4.3050000 -43.6270000
 -29.7280000   3.6640000 -43.2520000 -28.3350000   4.2360000 -43.0890000
 -29.1010000   4.2150000 -43.5100000 -28.5860000   0.7420000 -37.3490000
 -27.6950000   0.5130000 -37.6130000 -29.1090000   0.6210000 -38.1420000
 -28.5380000   0.6980000 -37.4840000 -26.7010000   4.1310000 -42.3580000
 -26.5230000   3.2490000 -42.0330000 -26.3830000   4.7110000 -41.6670000
 -26.6370000   4.0920000 -42.2280000 -28.8110000  10.3660000 -41.5870000
 -28.9400000   9.5010000 -41.1980000 -28.3680000  10.1910000 -42.4180000
 -28.7710000  10.2330000 -41.6440000 -25.4350000  18.0470000 -47.9800000
 -24.8480000  18.7840000 -48.1550000 -26.2160000  18.2330000 -48.4990000
 -25.4590000  18.1650000 -48.0690000 -34.9930000   1.6980000 -41.4420000
 -34.7870000   2.5960000 -41.1850000 -35.3500000   1.2970000 -40.6490000
 -35.0120000   1.7610000 -41.3080000 -26.6450000   6.1870000 -40.4430000
 -26.0600000   6.5000000 -39.7540000 -27.3710000   6.8120000 -40.4430000
 -26.6630000   6.3070000 -40.3550000 -33.6730000  14.5460000 -47.5790000
 -34.3970000  14.8490000 -48.1270000 -33.0800000  15.2960000 -47.5310000
 -33.6900000  14.6810000 -47.6430000 -31.0500000   7.2630000 -45.9660000
 -30.1690000   7.5550000 -45.7330000 -30.9650000   6.9290000 -46.8580000
 -30.9260000   7.2580000 -46.0510000 -35.0860000  15.0210000 -37.2950000
 -34.6030000  15.5820000 -37.9020000 -35.5280000  14.3850000 -37.8560000
 -35.0800000  15.0120000 -37.4440000 -31.4600000  16.7570000 -38.4970000
 -30.8850000  16.6700000 -37.7360000 -31.5010000  17.6990000 -38.6590000
 -31.3910000  16.8660000 -38.4210000 -26.7530000   3.0820000 -47.7820000
 -27.7050000   3.0190000 -47.7110000 -26.4250000   2.3540000 -47.2540000
 -26.8340000   2.9810000 -47.7050000 -21.6250000  11.0900000 -45.6600000
 -21.1850000  11.5970000 -44.9770000 -22.2960000  10.5930000 -45.1940000
 -21.6530000  11.0910000 -45.5130000 -20.4090000  12.8580000 -43.4320000
 -21.1230000  13.4630000 -43.6310000 -19.6930000  13.4210000 -43.1350000
 -20.4090000  13.0070000 -43.4190000 -31.1050000  10.6110000 -38.5960000
 -31.2620000   9.6670000 -38.6320000 -31.1930000  10.9030000 -39.5030000
 -31.1370000  10.5270000 -38.7170000 -21.6320000   5.2550000 -46.5910000
 -20.7200000   5.2660000 -46.2980000 -21.6320000   4.6700000 -47.3490000
 -21.5150000   5.1810000 -46.6500000 -23.7870000   9.5920000 -44.7400000
 -24.6620000   9.3350000 -45.0300000 -23.4350000   8.8090000 -44.3150000
 -23.8550000   9.4590000 -44.7230000 -34.0780000  16.5080000 -39.5820000
 -34.3300000  17.4120000 -39.3910000 -33.1730000  16.4430000 -39.2790000
 -33.9940000  16.6160000 -39.5190000 -29.4420000   6.0920000 -48.2770000
 -29.3560000   5.3080000 -47.7330000 -29.0030000   6.7790000 -47.7770000
 -29.3750000   6.0800000 -48.1440000 -20.7800000   3.7100000 -38.9370000
 -21.6800000   3.3820000 -38.9420000 -20.4550000   3.5330000 -39.8190000
 -20.8550000   3.6450000 -39.0500000 -26.3160000  14.1160000 -39.8070000
 -25.7350000  13.9520000 -39.0660000 -26.9100000  14.8020000 -39.4990000
 -26.3180000  14.1830000 -39.6730000 -30.0140000  14.5800000 -47.0680000
 -30.4940000  13.7720000 -46.8910000 -29.2850000  14.5660000 -46.4490000
 -29.9820000  14.4750000 -46.9660000 -16.6020000   7.4970000 -48.6840000
 -16.5880000   7.1840000 -47.7790000 -16.6520000   8.4500000 -48.6070000
 -16.6060000   7.5790000 -48.5580000 -30.4710000   7.0810000 -42.6810000
 -31.3160000   6.7610000 -42.3640000 -29.9980000   6.2900000 -42.9400000
 -30.5200000   6.9390000 -42.6730000 -33.5450000  12.2670000 -38.3470000
 -32.7330000  11.7790000 -38.4890000 -33.8140000  12.5440000 -39.2230000
 -33.4760000  12.2400000 -38.4780000 -20.7440000   2.9480000 -41.5060000
 -21.6100000   2.7840000 -41.8770000 -20.1610000   2.3560000 -41.9830000
 -20.7800000   2.8510000 -41.6150000 -31.2820000  11.3070000 -41.3190000
 -30.4030000  10.9340000 -41.3710000 -31.8200000  10.7260000 -41.8560000
 -31.2380000  11.1850000 -41.3940000 -22.2930000  15.0180000 -42.9620000
 -22.6450000  14.9150000 -42.0770000 -22.1450000  15.9600000 -43.0520000
 -22.3200000  15.1250000 -42.8600000 -20.1560000  16.7850000 -41.0830000
 -19.9580000  16.3900000 -40.2330000 -20.8280000  17.4400000 -40.8920000
 -20.2170000  16.8180000 -40.9500000 -24.8380000   9.5640000 -41.6700000
 -25.3950000   9.1700000 -42.3420000 -25.4150000  10.1740000 -41.2100000
 -24.9830000   9.5920000 -41.6970000 -20.9240000   8.8250000 -38.4760000
 -21.7470000   9.1650000 -38.8250000 -21.0690000   8.7690000 -37.5310000
 -21.0470000   8.8610000 -38.4000000 -34.0000000   9.1420000 -44.0440000
 -34.3760000   9.0150000 -43.1740000 -34.5630000   8.6310000 -44.6260000
 -34.1190000   9.0610000 -44.0070000 -24.9920000  10.6520000 -48.5890000
 -24.4470000  11.1530000 -47.9820000 -25.6860000  11.2590000 -48.8460000
 -25.0110000  10.7930000 -48.5440000 -33.8510000   3.6150000 -37.9530000
 -34.0050000   3.8950000 -38.8560000 -34.0890000   4.3750000 -37.4230000
 -33.9020000   3.7480000 -38.0010000 -26.3530000  17.7410000 -42.7990000
 -26.9010000  17.6720000 -43.5790000 -25.9880000  16.8640000 -42.6830000
 -26.3750000  17.6200000 -42.8840000 -31.9180000   7.7360000 -38.8480000
 -32.0340000   7.4520000 -39.7550000 -32.8100000   7.8390000 -38.5150000
 -32.0480000   7.7130000 -38.9220000 -32.8730000   6.0630000 -44.0020000
 -33.4640000   5.3240000 -44.1540000 -32.2620000   6.0350000 -44.7370000
 -32.8700000   5.9650000 -44.1160000 -31.4880000  12.2550000 -45.9700000
 -31.5280000  11.3000000 -46.0070000 -31.9430000  12.4830000 -45.1600000
 -31.5510000  12.1620000 -45.8710000 -23.5230000   8.9080000 -39.2880000
 -24.2150000   8.2680000 -39.1200000 -23.7310000   9.2640000 -40.1510000
 -23.6380000   8.8710000 -39.3770000 -27.6450000  14.8660000 -45.5600000
 -27.7100000  14.3460000 -44.7580000 -27.1010000  15.6150000 -45.3170000
 -27.5850000  14.8950000 -45.4260000 -35.8330000  17.9540000 -47.7810000
 -36.3750000  18.3770000 -47.1140000 -34.9350000  18.1510000 -47.5190000
 -35.7890000  18.0340000 -47.6620000 -34.2920000  12.0190000 -40.8610000
 -34.3300000  12.3360000 -41.7630000 -35.1650000  11.6600000 -40.6960000
 -34.4090000  12.0130000 -40.9550000 -30.3850000  13.7590000 -42.2860000
 -31.1670000  14.1650000 -42.6550000 -30.6720000  12.8880000 -42.0130000
 -30.5210000  13.6990000 -42.2980000 -21.3340000  -2.3370000 -46.2920000
 -21.1890000  -1.9320000 -45.4370000 -22.2800000  -2.2690000 -46.4310000
 -21.4360000  -2.2770000 -46.2000000 -31.3590000   9.7160000 -43.8070000
 -31.0340000   8.9130000 -43.4000000 -32.2270000   9.4840000 -44.1330000
 -31.4280000   9.5840000 -43.7970000 -35.7420000  10.6500000 -37.8380000
 -34.9400000  11.1600000 -37.9470000 -36.1920000  11.0680000 -37.1040000
 -35.6970000  10.7690000 -37.7580000 -20.5580000  18.5700000 -46.5100000
 -20.7050000  17.6270000 -46.4280000 -19.9050000  18.7680000 -45.8390000
 -20.4940000  18.4740000 -46.4140000 -19.2250000  14.8480000 -47.7240000
 -20.0700000  15.2610000 -47.5400000 -19.3570000  13.9260000 -47.5060000
 -19.3500000  14.7830000 -47.6730000 -27.9250000   8.3940000 -47.9550000
 -28.3320000   9.1540000 -48.3710000 -27.0640000   8.3290000 -48.3650000
 -27.8670000   8.4830000 -48.0610000 -35.2350000  10.1240000 -46.9700000
 -34.2780000  10.1080000 -46.9890000 -35.4800000   9.3100000 -46.5300000
 -35.1430000  10.0180000 -46.9160000 -24.9310000   4.1340000 -44.4310000
 -25.3850000   4.5760000 -45.1490000 -25.4730000   4.3090000 -43.6620000
 -25.0580000   4.2130000 -44.4250000 -19.7660000   9.0620000 -45.4870000
 -20.1550000   8.5880000 -44.7510000 -20.3020000   9.8510000 -45.5730000
 -19.8850000   9.1020000 -45.4040000 -26.3920000   5.6100000 -46.6210000
 -25.7660000   6.0600000 -47.1880000 -26.5340000   4.7630000 -47.0450000
 -26.3300000   5.5590000 -46.7480000 -27.8570000  13.4870000 -43.1220000
 -27.4650000  14.3080000 -42.8260000 -28.7700000  13.5420000 -42.8400000
 -27.9230000  13.5990000 -43.0480000 -22.6340000   6.7710000 -43.9730000
 -22.8980000   6.1190000 -43.3230000 -22.4150000   6.2580000 -44.7510000
 -22.6400000   6.6220000 -43.9890000 -30.2310000   3.4240000 -40.5080000
 -29.3100000   3.5000000 -40.2640000 -30.6830000   4.0410000 -39.9330000
 -30.1710000   3.5120000 -40.4040000 -33.2410000   0.4340000 -47.5890000
 -33.0700000   1.3550000 -47.3900000 -32.6740000  -0.0500000 -46.9880000
 -33.1470000   0.4900000 -47.4870000 -32.3870000   9.5610000 -47.1960000
 -32.1300000   9.1430000 -48.0180000 -32.3030000   8.8690000 -46.5400000
 -32.3420000   9.4190000 -47.2170000 -25.0750000  14.0160000 -46.7370000
 -24.9760000  14.2630000 -47.6570000 -25.9280000  14.3660000 -46.4850000
 -25.1710000  14.0920000 -46.8220000 -21.5800000   0.3000000 -37.7730000
 -22.1210000  -0.2150000 -37.1750000 -22.0450000   1.1330000 -37.8600000
 -21.7090000   0.3410000 -37.7070000 -23.9860000  16.4420000 -46.1980000
 -24.5300000  17.0420000 -46.7090000 -24.3780000  15.5810000 -46.3440000
 -24.1050000  16.4090000 -46.2820000 -20.2110000   7.8510000 -42.5750000
 -21.1070000   7.5260000 -42.6620000 -20.3110000   8.7460000 -42.2500000
 -20.3390000   7.9240000 -42.5440000 -29.8950000  18.8100000 -47.2250000
 -29.9280000  18.1230000 -46.5600000 -29.4180000  18.4150000 -47.9550000
 -29.8390000  18.6720000 -47.2330000 -28.3830000   6.9190000 -45.4210000
 -28.8320000   6.1650000 -45.0390000 -27.6610000   6.5390000 -45.9210000
 -28.3480000   6.7740000 -45.4360000 -26.8480000  11.0430000 -43.7090000
 -27.1250000  11.8670000 -43.3070000 -25.8970000  11.0300000 -43.6000000
 -26.7610000  11.1470000 -43.6440000 -27.4920000  18.2660000 -45.4600000
 -26.7030000  18.8040000 -45.5140000 -28.0920000  18.6580000 -46.0940000
 -27.4680000  18.3850000 -45.5480000 -27.7100000   4.0000000 -39.0190000
 -28.1750000   4.5980000 -38.4350000 -27.1150000   4.5640000 -39.5140000
 -27.6930000   4.1480000 -39.0080000 -35.4630000   8.8910000 -41.5720000
 -36.1420000   9.5300000 -41.3520000 -35.8720000   8.0420000 -41.4090000
 -35.6030000   8.8640000 -41.5230000 -26.3970000   9.3330000 -45.6230000
 -26.6650000   9.9760000 -44.9650000 -27.1960000   9.1510000 -46.1190000
 -26.5340000   9.3920000 -45.6030000 -26.4200000   7.6670000 -43.0610000
 -26.5840000   7.9760000 -43.9520000 -27.2820000   7.4030000 -42.7380000
 -26.5510000   7.6730000 -43.1330000 -26.1980000   1.8880000 -38.9230000
 -26.2010000   1.5980000 -39.8350000 -26.8700000   2.5690000 -38.8860000
 -26.2850000   1.9380000 -39.0350000 -26.4880000  11.3300000 -40.5250000
 -27.3060000  11.1740000 -40.9960000 -26.4400000  12.2820000 -40.4360000
 -26.5860000  11.4320000 -40.5740000 -22.1380000   6.0260000 -39.2940000
 -21.4250000   5.3940000 -39.1990000 -21.6980000   6.8630000 -39.4400000
 -21.9910000   6.0520000 -39.3010000 -20.6650000  17.3030000 -43.7250000
 -20.3840000  17.2070000 -42.8150000 -21.4460000  17.8540000 -43.6760000
 -20.7300000  17.3610000 -43.6020000 -33.0130000  11.9650000 -48.6660000
 -33.1010000  12.7450000 -48.1170000 -32.9420000  11.2410000 -48.0430000
 -33.0160000  11.9720000 -48.5160000 -32.9120000   7.1060000 -41.4820000
 -33.0030000   6.9860000 -42.4270000 -33.6350000   7.6840000 -41.2440000
 -33.0160000   7.1650000 -41.5730000 -34.2690000   4.2330000 -40.5680000
 -33.4780000   4.2660000 -41.1050000 -34.6300000   5.1190000 -40.6160000
 -34.2140000   4.3500000 -40.6430000 -23.1130000   2.4860000 -39.0990000
 -23.0520000   2.1390000 -39.9890000 -24.0530000   2.5340000 -38.9250000
 -23.2260000   2.4480000 -39.1910000 -32.7260000  14.5340000 -43.7410000
 -33.2960000  15.2210000 -43.3940000 -33.1780000  13.7180000 -43.5270000
 -32.8570000  14.5180000 -43.6690000 -22.9960000   1.4590000 -46.7980000
 -22.1250000   1.0660000 -46.7410000 -23.0950000   1.6900000 -47.7210000
 -22.8970000   1.4380000 -46.9090000 -26.0890000   1.7260000 -41.6640000
 -26.3480000   0.9500000 -42.1610000 -25.1320000   1.7310000 -41.7120000
 -26.0000000   1.6270000 -41.7330000 -29.1680000   3.8740000 -46.3830000
 -30.0200000   3.4430000 -46.4700000 -29.0700000   4.0210000 -45.4420000
 -29.2650000   3.8380000 -46.2740000 -30.5370000   0.8950000 -39.2320000
 -31.0900000   1.2060000 -38.5160000 -30.4760000   1.6410000 -39.8290000
 -30.6010000   1.0300000 -39.2170000 -25.8680000  15.0790000 -42.3420000
 -26.0710000  14.7690000 -41.4600000 -25.3550000  14.3710000 -42.7320000
 -25.8280000  14.9480000 -42.2790000 -23.2230000  12.6810000 -39.6950000
 -23.8630000  12.1480000 -39.2230000 -23.2610000  12.3580000 -40.5960000
 -23.3100000  12.5710000 -39.7500000 -29.4560000  15.0490000 -39.5600000
 -29.8430000  14.6840000 -40.3560000 -30.1050000  15.6780000 -39.2450000
 -29.5900000  15.0820000 -39.6210000 -35.1930000   4.0290000 -46.7690000
 -35.2870000   3.5620000 -47.5990000 -34.3700000   3.7060000 -46.4040000
 -35.1010000   3.9280000 -46.8280000 -20.5560000  10.5180000 -41.8780000
 -21.4470000  10.7340000 -41.6000000 -20.2800000  11.2710000 -42.4000000
 -20.6350000  10.6420000 -41.9090000 -33.0300000   3.2870000 -45.5130000
 -32.5780000   2.7080000 -44.8990000 -32.4670000   3.3020000 -46.2860000
 -32.9000000   3.2150000 -45.5330000 -25.2030000  20.0190000 -45.3270000
 -24.4270000  19.8630000 -45.8660000 -25.2330000  20.9700000 -45.2210000
 -25.1070000  20.1210000 -45.3820000 -23.4390000  15.8510000 -39.7910000
 -23.1700000  14.9470000 -39.6310000 -24.3910000  15.8380000 -39.6900000
 -23.5260000  15.7340000 -39.7570000 -23.1300000  11.5570000 -42.0940000
 -23.7390000  10.8210000 -42.0380000 -23.5610000  12.1810000 -42.6770000
 -23.2620000  11.5420000 -42.1610000 -34.0320000  12.1450000 -43.6690000
 -34.4920000  12.4890000 -44.4340000 -33.9510000  11.2070000 -43.8400000
 -34.0800000  12.0690000 -43.7890000 -30.9950000   5.2450000 -38.5410000
 -31.7600000   4.8480000 -38.1230000 -31.2500000   6.1560000 -38.6890000
 -31.1260000   5.3110000 -38.5060000 -24.2740000  13.4160000 -44.0750000
 -24.4470000  13.3390000 -45.0130000 -23.4910000  13.9630000 -44.0200000
 -24.1960000  13.4760000 -44.1880000 -22.4280000  18.3670000 -40.4650000
 -22.0200000  18.5390000 -39.6170000 -22.6970000  17.4500000 -40.4200000
 -22.4100000  18.2720000 -40.3510000 -23.4150000   3.0290000 -42.1970000
 -23.7010000   3.8550000 -41.8060000 -23.6370000   3.1130000 -43.1240000
 -23.4800000   3.1460000 -42.2650000 -19.9210000  16.0140000 -38.4720000
 -20.6940000  16.0450000 -37.9080000 -19.3040000  16.6240000 -38.0660000
 -19.9410000  16.0960000 -38.3470000 -25.0200000  11.1410000 -38.4030000
 -25.8310000  11.1790000 -38.9100000 -24.6560000  10.2780000 -38.5980000
 -25.0780000  11.0360000 -38.4930000 -31.6800000   3.1840000 -47.8450000
 -31.8590000   3.7740000 -48.5770000 -31.1950000   2.4570000 -48.2350000
 -31.6410000   3.1670000 -47.9880000 -35.3940000  13.2810000 -45.4630000
 -35.1350000  13.9740000 -46.0710000 -36.2670000  13.5400000 -45.1640000
 -35.4720000  13.4030000 -45.5030000 -21.7070000  10.8710000 -48.4820000
 -20.8530000  10.5300000 -48.7520000 -21.6850000  10.8420000 -47.5260000
 -21.5950000  10.8230000 -48.3950000 -28.7760000   7.7820000 -40.5770000
 -29.5300000   7.4520000 -41.0650000 -28.9780000   7.5840000 -39.6630000
 -28.8980000   7.7140000 -40.5230000 -25.2260000   7.1050000 -38.5080000
 -26.0100000   7.0660000 -37.9600000 -24.5900000   6.5540000 -38.0540000
 -25.2450000   7.0300000 -38.3800000 -19.6300000   0.8970000 -48.9740000
 -20.2260000   0.5470000 -48.3120000 -18.9120000   0.2650000 -49.0090000
 -19.6140000   0.7720000 -48.8940000 -23.8320000   5.6280000 -41.3050000
 -23.1380000   5.8220000 -40.6730000 -24.4670000   6.3340000 -41.1870000
 -23.8250000   5.7430000 -41.2090000 -23.3660000  17.8980000 -43.8300000
 -23.8400000  18.7310000 -43.8370000 -23.8970000  17.3170000 -44.3740000
 -23.4950000  17.9300000 -43.9000000 -29.0900000  -4.6680000  44.7380000
 -29.2640000  -4.5070000  45.6650000 -29.8550000  -5.1540000  44.4320000
 -29.2100000  -4.7100000  44.8180000 -32.5190000  -9.7710000  40.0680000
 -32.6730000  -9.3140000  40.8950000 -31.8080000 -10.3810000  40.2600000
 -32.4480000  -9.7910000  40.1980000 -22.3580000  -3.6120000  38.2550000
 -23.2200000  -3.2840000  37.9980000 -22.4550000  -4.5640000  38.2530000
 -22.4810000  -3.6920000  38.2220000 -35.6320000  -3.5150000  45.0320000
 -35.5940000  -2.6220000  44.6870000 -36.4320000  -3.5360000  45.5580000
 -35.7300000  -3.4030000  45.0550000 -30.9210000  -1.7250000  41.7200000
 -31.7200000  -2.2520000  41.7300000 -30.5780000  -1.8280000  40.8330000
 -30.9800000  -1.8060000  41.6080000 -27.0140000  -6.7400000  44.1870000
 -27.4400000  -7.3470000  43.5830000 -27.6760000  -6.0730000  44.3650000
 -27.1530000  -6.7320000  44.1330000 -21.2610000 -16.1080000  43.4400000
 -21.1940000 -17.0550000  43.3170000 -20.3920000 -15.8430000  43.7420000
 -21.1410000 -16.1950000  43.4640000 -20.1420000 -11.8170000  45.2820000
 -20.9210000 -11.7070000  45.8270000 -19.7980000 -10.9310000  45.1720000
 -20.1980000 -11.6900000  45.3370000 -29.0460000 -15.6890000  39.4300000
 -29.3120000 -16.1520000  40.2240000 -29.0300000 -16.3660000  38.7530000
 -29.0780000 -15.8350000  39.4450000 -25.9350000  -7.5490000  39.7320000
 -25.1650000  -7.5280000  40.2990000 -25.6160000  -7.9160000  38.9090000
 -25.7960000  -7.5930000  39.6990000 -20.2000000  -7.9120000  41.4630000
 -20.5650000  -7.2710000  42.0730000 -20.9650000  -8.3340000  41.0700000
 -20.3440000  -7.8840000  41.4900000 -22.2170000  -6.3120000  38.4800000
 -22.1750000  -6.4460000  37.5320000 -21.3320000  -6.0450000  38.7220000
 -22.0980000  -6.2950000  38.3890000 -21.8750000 -15.8820000  40.5670000
 -21.7420000 -16.0260000  41.5050000 -22.7420000 -15.4830000  40.5070000
 -21.9680000 -15.8500000  40.6800000 -25.2240000  -4.1450000  45.0680000
 -25.0480000  -3.2950000  44.6650000 -25.9840000  -4.4820000  44.5940000
 -25.2980000  -4.0790000  44.9570000 -25.4350000  -0.8200000  46.3200000
 -24.8480000  -0.0830000  46.1450000 -26.2160000  -0.6340000  45.8020000
 -25.4590000  -0.7020000  46.2320000 -33.1130000 -13.5650000  44.8400000
 -33.5190000 -13.5660000  43.9730000 -33.5980000 -12.9020000  45.3320000
 -33.2260000 -13.4800000  44.7930000 -33.6860000 -16.3780000  43.5580000
 -34.4430000 -16.3910000  44.1430000 -33.1530000 -17.1220000  43.8390000
 -33.7140000 -16.4750000  43.6690000 -29.0260000 -12.1790000  43.3890000
 -29.8510000 -12.1970000  42.9040000 -29.2760000 -12.3650000  44.2940000
 -29.1630000 -12.2050000  43.4430000 -31.9110000  -2.5140000  48.0070000
 -32.1730000  -2.8890000  48.8480000 -31.1800000  -3.0590000  47.7180000
 -31.8510000  -2.6320000  48.0770000 -33.6730000  -4.3210000  46.7220000
 -34.3970000  -4.0180000  46.1730000 -33.0800000  -3.5710000  46.7690000
 -33.6900000  -4.1860000  46.6570000 -34.2010000 -10.5570000  38.0590000
 -34.8030000  -9.8200000  37.9640000 -33.5710000 -10.2670000  38.7200000
 -34.1970000 -10.4260000  38.1320000 -29.7730000  -2.0950000  39.3520000
 -29.3150000  -2.9170000  39.5240000 -29.0750000  -1.4550000  39.2140000
 -29.6250000  -2.1180000  39.3570000 -31.0500000 -11.6040000  48.3340000
 -30.1690000 -11.3120000  48.5670000 -30.9650000 -11.9380000  47.4420000
 -30.9260000 -11.6090000  48.2500000 -26.7530000 -15.7850000  46.5180000
 -27.7050000 -15.8480000  46.5890000 -26.4250000 -16.5130000  47.0470000
 -26.8340000 -15.8860000  46.5950000 -21.6250000  -7.7770000  48.6400000
 -21.1850000  -7.2700000  49.3230000 -22.2960000  -8.2740000  49.1070000
 -21.6530000  -7.7760000  48.7870000 -26.8970000  -4.9480000  39.8070000
 -26.5930000  -5.8410000  39.9630000 -26.3700000  -4.4080000  40.3950000
 -26.7910000  -4.9930000  39.9010000 -24.2740000 -14.4600000  40.3820000
 -24.1700000 -14.1160000  41.2690000 -24.4050000 -13.6840000  39.8380000
 -24.2780000 -14.3170000  40.4270000 -21.6320000 -13.6120000  47.7090000
 -20.7200000 -13.6010000  48.0030000 -21.6320000 -14.1970000  46.9520000
 -21.5150000 -13.6860000  47.6500000 -32.0450000 -17.2860000  38.3690000
 -31.7030000 -17.2770000  39.2630000 -32.5300000 -16.4640000  38.2910000
 -32.0640000 -17.1790000  38.4730000 -29.4420000 -12.7750000  46.0230000
 -29.3560000 -13.5590000  46.5670000 -29.0030000 -12.0880000  46.5230000
 -29.3750000 -12.7870000  46.1570000 -20.7650000  -4.0350000  41.3600000
 -20.6430000  -3.1600000  40.9920000 -20.5550000  -4.6290000  40.6380000
 -20.7220000  -3.9990000  41.2190000 -22.3460000 -18.6360000  40.2380000
 -22.2180000 -17.7210000  39.9860000 -23.2950000 -18.7310000  40.3220000
 -22.4510000 -18.5310000  40.2170000 -30.0140000  -4.2870000  47.2320000
 -30.4940000  -5.0950000  47.4090000 -29.2850000  -4.3010000  47.8520000
 -29.9820000  -4.3920000  47.3340000 -19.1710000 -17.2980000  38.2380000
 -19.3470000 -16.4570000  37.8170000 -19.9800000 -17.7970000  38.1240000
 -19.2970000 -17.2540000  38.1710000 -16.6020000 -11.3700000  45.6170000
 -16.5880000 -11.6830000  46.5220000 -16.6520000 -10.4170000  45.6930000
 -16.6060000 -11.2880000  45.7430000 -27.2100000 -13.4340000  39.5000000
 -27.8350000 -14.1580000  39.5230000 -26.9910000 -13.2750000  40.4170000
 -27.2610000 -13.5060000  39.6190000 -34.6370000  -2.0280000  41.0770000
 -35.2190000  -1.5300000  41.6500000 -34.4080000  -1.4170000  40.3760000
 -34.6820000  -1.8860000  41.0600000 -21.0370000 -10.4690000  39.5000000
 -21.4940000 -10.7100000  40.3070000 -20.1110000 -10.6090000  39.6990000
 -20.9770000 -10.5180000  39.6300000 -22.9120000 -14.7520000  45.0890000
 -22.2160000 -15.1380000  44.5550000 -23.5220000 -15.4740000  45.2430000
 -22.9010000 -14.8940000  45.0400000 -27.0110000 -13.3160000  42.1630000
 -27.8350000 -13.0330000  42.5590000 -26.3340000 -12.9300000  42.7180000
 -27.0300000 -13.2310000  42.2850000 -24.9920000  -8.2150000  45.7120000
 -24.4470000  -7.7140000  46.3180000 -25.6860000  -7.6080000  45.4550000
 -25.0110000  -8.0740000  45.7570000 -22.2880000 -10.9690000  41.9040000
 -22.3320000 -10.3500000  42.6350000 -22.6550000 -11.7800000  42.2570000
 -22.3400000 -10.9930000  42.0430000 -27.5380000 -10.1050000  42.3830000
 -28.2100000 -10.7860000  42.4130000 -27.4600000  -9.8880000  41.4550000
 -27.6150000 -10.1640000  42.2680000 -31.4880000  -6.6120000  48.3300000
 -31.5280000  -7.5670000  48.2930000 -31.9430000  -6.3840000  49.1400000
 -31.5510000  -6.7050000  48.4300000 -35.5720000  -6.4120000  44.3520000
 -34.8930000  -6.6920000  44.9650000 -35.4750000  -5.4620000  44.3030000
 -35.4730000  -6.3260000  44.4250000 -30.1590000  -7.6760000  39.4390000
 -30.5410000  -7.9850000  38.6170000 -29.9190000  -6.7650000  39.2630000
 -30.1760000  -7.5990000  39.3120000 -31.3310000 -17.4060000  41.1200000
 -31.0860000 -18.2810000  41.4220000 -31.5460000 -16.9290000  41.9220000
 -31.3280000 -17.4570000  41.2610000 -26.0990000 -15.6570000  43.6580000
 -26.3930000 -14.9420000  43.0940000 -26.3700000 -15.3960000  44.5380000
 -26.1710000 -15.5320000  43.6980000 -22.1460000  -5.1050000  45.3600000
 -23.0610000  -5.0950000  45.0770000 -22.0240000  -5.9730000  45.7440000
 -22.2480000  -5.2150000  45.3730000 -34.4930000 -13.1410000  39.1540000
 -35.4180000 -13.3840000  39.1920000 -34.4970000 -12.2210000  38.8890000
 -34.6110000 -13.0540000  39.1250000 -32.5240000  -8.7880000  42.4430000
 -31.7010000  -8.3020000  42.4050000 -32.4730000  -9.2830000  43.2600000
 -32.4120000  -8.7890000  42.5430000 -35.8330000  -0.9130000  46.5190000
 -36.3750000  -0.4900000  47.1870000 -34.9350000  -0.7160000  46.7820000
 -35.7890000  -0.8330000  46.6380000 -30.2300000  -7.1510000  42.4450000
 -30.7530000  -6.4480000  42.8320000 -30.2170000  -6.9550000  41.5100000
 -30.2940000  -7.0360000  42.3750000 -23.1860000 -12.2840000  38.6100000
 -22.7090000 -12.6370000  37.8610000 -22.6850000 -11.5120000  38.8720000
 -23.0610000 -12.2300000  38.5470000 -21.3340000 -21.2050000  48.0080000
 -21.1890000 -20.7990000  48.8630000 -22.2800000 -21.1360000  47.8690000
 -21.4360000 -21.1440000  48.1010000 -25.2460000 -11.0690000  45.7230000
 -24.7480000 -11.2760000  44.9320000 -25.0620000 -10.1440000  45.8870000
 -25.1590000 -10.9770000  45.6420000 -30.6210000 -12.3230000  39.4640000
 -31.1030000 -13.1400000  39.3320000 -30.1870000 -12.1640000  38.6250000
 -30.6280000 -12.4070000  39.3390000 -20.5580000  -0.2970000  47.7900000
 -20.7050000  -1.2400000  47.8720000 -19.9050000  -0.0990000  48.4620000
 -20.4940000  -0.3930000  47.8870000 -19.2250000  -4.0190000  46.5770000
 -20.0700000  -3.6060000  46.7600000 -19.3570000  -4.9410000  46.7940000
 -19.3500000  -4.0840000  46.6280000 -27.9250000 -10.4730000  46.3450000
 -28.3320000  -9.7130000  45.9300000 -27.0640000 -10.5380000  45.9350000
 -27.8670000 -10.3840000  46.2390000 -23.3880000  -9.2340000  43.8270000
 -22.7150000  -8.8220000  44.3680000 -24.1980000  -8.7880000  44.0730000
 -23.4050000  -9.1240000  43.9280000 -35.2350000  -8.7430000  47.3300000
 -34.2780000  -8.7590000  47.3120000 -35.4800000  -9.5570000  47.7700000
 -35.1430000  -8.8490000  47.3850000 -26.3920000 -13.2570000  47.6800000
 -25.7660000 -12.8070000  47.1130000 -26.5340000 -14.1040000  47.2550000
 -26.3300000 -13.3080000  47.5530000 -26.3680000 -16.5120000  40.4360000
 -27.1280000 -16.2640000  39.9070000 -25.8140000 -15.7320000  40.4370000
 -26.3950000 -16.3800000  40.3680000 -33.8330000 -13.2190000  42.1530000
 -33.9230000 -13.4900000  41.2390000 -34.7320000 -13.0620000  42.4450000
 -33.9610000 -13.2330000  42.0730000 -24.2460000 -17.3280000  44.9480000
 -24.9090000 -16.9220000  44.3880000 -23.5510000 -17.5910000  44.3450000
 -24.2420000 -17.3090000  44.8000000 -31.8870000 -10.3030000  44.5530000
 -31.6990000 -11.0550000  43.9900000 -31.0320000  -9.9120000  44.7230000
 -31.7550000 -10.3490000  44.5030000 -33.2410000 -18.4330000  46.7120000
 -33.0700000 -17.5120000  46.9100000 -32.6740000 -18.9170000  47.3120000
 -33.1470000 -18.3770000  46.8140000 -29.4370000  -5.0960000  38.8360000
 -28.5930000  -5.1340000  39.2870000 -29.2150000  -4.8910000  37.9280000
 -29.3000000  -5.0750000  38.7780000 -32.3870000  -9.3060000  47.1050000
 -32.1300000  -9.7240000  46.2820000 -32.3030000  -9.9980000  47.7600000
 -32.3420000  -9.4480000  47.0830000 -25.0750000  -4.8510000  47.5640000
 -24.9760000  -4.6040000  46.6430000 -25.9280000  -4.5010000  47.8150000
 -25.1710000  -4.7750000  47.4780000 -27.6850000  -0.4370000  44.9030000
 -27.8690000  -1.2640000  44.4570000 -27.9960000   0.2360000  44.2970000
 -27.7480000  -0.4570000  44.7670000 -26.0960000  -1.2020000  37.9920000
 -25.9390000  -0.3630000  37.5590000 -25.8350000  -1.0550000  38.9010000
 -26.0420000  -1.0760000  38.0530000 -23.9860000  -2.4250000  48.1020000
 -24.5300000  -1.8250000  47.5920000 -24.3780000  -3.2860000  47.9570000
 -24.1050000  -2.4580000  48.0180000 -29.8950000  -0.0570000  47.0760000
 -29.9280000  -0.7440000  47.7400000 -29.4180000  -0.4520000  46.3450000
 -29.8390000  -0.1950000  47.0680000 -28.0150000  -9.3290000  39.7630000
 -27.2850000  -8.7090000  39.7530000 -28.7970000  -8.7780000  39.7320000
 -28.0220000  -9.1790000  39.7570000 -28.3830000 -11.9480000  48.8800000
 -28.8320000 -12.7020000  49.2620000 -27.6610000 -12.3280000  48.3800000
 -28.3480000 -12.0930000  48.8640000 -31.3600000 -15.2110000  42.8630000
 -31.5090000 -14.2680000  42.7840000 -32.1530000 -15.5430000  43.2870000
 -31.4800000 -15.1330000  42.9070000 -27.4920000  -0.6010000  48.8400000
 -26.7030000  -0.0630000  48.7870000 -28.0920000  -0.2090000  48.2070000
 -27.4680000  -0.4820000  48.7530000 -32.1050000 -14.7220000  39.4570000
 -33.0220000 -14.9370000  39.6230000 -31.6300000 -15.1100000  40.1920000
 -32.1610000 -14.7990000  39.5720000 -24.5030000  -1.9710000  43.6930000
 -24.8700000  -1.3900000  44.3570000 -23.6110000  -1.6480000  43.5580000
 -24.4350000  -1.8550000  43.7600000 -26.3970000  -9.5340000  48.6780000
 -26.6650000  -8.8910000  49.3350000 -27.1960000  -9.7160000  48.1820000
 -26.5340000  -9.4750000  48.6980000 -34.5400000 -18.3160000  39.3850000
 -34.5390000 -17.5740000  39.9890000 -34.0360000 -18.0120000  38.6320000
 -34.4750000 -18.1820000  39.3670000 -33.6230000  -6.2800000  39.6690000
 -33.5370000  -6.3310000  38.7170000 -34.1770000  -5.5120000  39.8180000
 -33.6830000  -6.1880000  39.5670000 -33.0130000  -6.9020000  45.6350000
 -33.1010000  -6.1220000  46.1830000 -32.9420000  -7.6260000  46.2570000
 -33.0160000  -6.8950000  45.7840000 -31.8300000 -18.2450000  44.2700000
 -32.2350000 -18.5760000  45.0730000 -31.7220000 -19.0190000  43.7180000
 -31.8670000 -18.3860000  44.3030000 -20.7440000  -2.7860000  44.0100000
 -20.6740000  -3.4150000  44.7270000 -20.6780000  -3.3180000  43.2180000
 -20.7270000  -2.9340000  44.0000000 -31.2860000 -12.1990000  42.1570000
 -30.9130000 -12.2640000  41.2780000 -32.1910000 -12.4950000  42.0550000
 -31.3550000 -12.2460000  42.0320000 -31.5870000  -5.0420000  40.5910000
 -32.3200000  -5.5310000  40.2140000 -30.9280000  -5.0290000  39.8980000
 -31.5970000  -5.1030000  40.4550000 -29.1410000 -15.3020000  44.5410000
 -29.9930000 -15.4400000  44.1300000 -29.0910000 -14.3550000  44.6780000
 -29.2430000 -15.1980000  44.5070000 -28.0960000 -11.6310000  37.7800000
 -28.1150000 -10.9810000  38.4820000 -27.7410000 -12.4190000  38.1920000
 -28.0530000 -11.6480000  37.9220000 -26.1350000  -2.7520000  41.6500000
 -26.8200000  -2.8240000  42.3150000 -25.3360000  -2.5740000  42.1470000
 -26.1200000  -2.7390000  41.8000000 -28.4230000 -17.1280000  42.6320000
 -28.6480000 -16.3430000  43.1320000 -27.5240000 -16.9760000  42.3400000
 -28.3360000 -17.0080000  42.6590000 -22.9960000 -17.4080000  47.5030000
 -22.1250000 -17.8010000  47.5590000 -23.0950000 -17.1770000  46.5800000
 -22.8970000 -17.4290000  47.3920000 -22.9710000 -13.5430000  42.7500000
 -23.1920000 -13.7930000  43.6480000 -22.1550000 -14.0090000  42.5680000
 -22.8950000 -13.6350000  42.8430000 -25.1250000  -3.7800000  37.8970000
 -25.5250000  -2.9120000  37.9470000 -25.6010000  -4.3010000  38.5440000
 -25.2370000  -3.7350000  37.9860000 -29.1680000 -14.9930000  47.9180000
 -30.0200000 -15.4240000  47.8300000 -29.0700000 -14.8460000  48.8580000
 -29.2650000 -15.0290000  48.0270000 -31.7460000  -5.4590000  43.7530000
 -32.3820000  -5.9140000  44.3050000 -32.2350000  -4.7250000  43.3800000
 -31.8890000  -5.4230000  43.7770000 -20.2800000 -13.5190000  40.5870000
 -21.1030000 -14.0060000  40.5380000 -20.5320000 -12.6550000  40.9150000
 -20.4170000 -13.4710000  40.6220000 -35.1930000 -14.8380000  47.5320000
 -35.2870000 -15.3050000  46.7020000 -34.3700000 -15.1610000  47.8970000
 -35.1010000 -14.9390000  47.4730000 -21.4880000  -6.3270000  42.8550000
 -21.4660000  -6.2110000  43.8050000 -21.3150000  -5.4540000  42.5030000
 -21.4630000  -6.2000000  42.9320000 -22.1130000  -0.3870000  43.1620000
 -22.3780000  -0.4220000  42.2430000 -21.4910000  -1.1080000  43.2600000
 -22.0670000  -0.4840000  43.0570000 -24.9390000  -0.3910000  40.6720000
 -25.4550000  -1.0760000  41.0980000 -25.4220000   0.4160000  40.8460000
 -25.0670000  -0.3760000  40.7500000 -25.2030000   1.1520000  48.9730000
 -24.4270000   0.9960000  48.4340000 -25.2330000   2.1030000  49.0800000
 -25.1070000   1.2540000  48.9180000 -28.6330000  -2.4360000  43.2020000
 -28.8700000  -3.2490000  43.6470000 -29.4370000  -2.1580000  42.7650000
 -28.7650000  -2.5040000  43.2030000 -35.8360000  -9.0810000  42.8170000
 -34.8800000  -9.0490000  42.8430000 -36.1070000  -8.1640000  42.8550000
 -35.7470000  -8.9600000  42.8250000 -34.4760000 -15.7910000  40.7870000
 -34.1680000 -15.7260000  41.6920000 -35.3940000 -16.0490000  40.8670000
 -34.5550000 -15.8160000  40.9130000 -25.1670000 -11.5300000  43.1720000
 -24.5470000 -11.0860000  42.5930000 -25.9780000 -11.0260000  43.0870000
 -25.1910000 -11.4080000  43.0870000 -32.8750000  -3.3940000  42.4030000
 -33.5760000  -2.9960000  41.8860000 -32.4430000  -3.9970000  41.7970000
 -32.9090000  -3.4200000  42.2600000 -29.4560000  -9.0670000  44.5440000
 -28.9420000  -9.6670000  44.0050000 -29.7300000  -8.3770000  43.9400000
 -29.4260000  -9.0560000  44.3980000 -19.7620000  -1.2080000  40.8330000
 -19.1740000  -1.3850000  40.0980000 -20.3520000  -0.5280000  40.5100000
 -19.7620000  -1.1440000  40.6970000 -19.3990000 -14.5020000  44.5890000
 -18.8170000 -14.0170000  44.0030000 -19.9650000 -13.8320000  44.9730000
 -19.3970000 -14.3540000  44.5640000 -31.6800000 -15.6830000  46.4550000
 -31.8590000 -15.0930000  45.7230000 -31.1950000 -16.4100000  46.0650000
 -31.6410000 -15.7000000  46.3120000 -35.3940000  -5.5860000  48.8370000
 -35.1350000  -4.8930000  48.2300000 -36.2670000  -5.3270000  49.1370000
 -35.4720000  -5.4640000  48.7970000 -21.7070000  -7.9960000  45.8180000
 -20.8530000  -8.3370000  45.5480000 -21.6850000  -8.0250000  46.7750000
 -21.5950000  -8.0440000  45.9050000 -19.6300000 -17.9700000  45.3270000
 -20.2260000 -18.3200000  45.9880000 -18.9120000 -18.6020000  45.2910000
 -19.6140000 -18.0950000  45.4070000 -23.5600000  -7.3250000  41.0330000
 -23.1650000  -6.9840000  41.8350000 -23.0700000  -6.9060000  40.3270000
 -23.4470000  -7.2280000  41.0460000 -31.2550000 -16.2980000  32.4540000
 -31.0260000 -16.3260000  33.3830000 -31.8840000 -17.0100000  32.3410000
 -31.3050000 -16.3930000  32.5590000 -33.8550000  -2.1120000  32.7140000
 -34.8100000  -2.1800000  32.6820000 -33.6670000  -1.8050000  33.6000000
 -33.9530000  -2.0810000  32.8230000 -29.0900000  -4.6680000  25.8770000
 -29.2640000  -4.5070000  26.8050000 -29.8550000  -5.1540000  25.5710000
 -29.2100000  -4.7100000  25.9570000 -33.3390000 -18.0120000  31.9600000
 -33.8990000 -17.5640000  32.5940000 -33.4850000 -18.9430000  32.1270000
 -33.4280000 -18.0740000  32.0620000 -32.5190000  -9.7710000  21.2080000
 -32.6730000  -9.3140000  22.0350000 -31.8080000 -10.3810000  21.4000000
 -32.4480000  -9.7910000  21.3380000 -29.1250000 -14.5620000  31.8130000
 -29.7280000 -15.2030000  32.1880000 -28.3350000 -14.6310000  32.3510000
 -29.1010000 -14.6520000  31.9300000 -28.5860000 -18.1250000  38.0910000
 -27.6950000 -18.3540000  37.8270000 -29.1090000 -18.2460000  37.2980000
 -28.5380000 -18.1690000  37.9570000 -22.3580000  -3.6120000  19.3940000
 -23.2200000  -3.2840000  19.1380000 -22.4550000  -4.5640000  19.3930000
 -22.4810000  -3.6920000  19.3610000 -35.6320000  -3.5150000  26.1710000
 -35.5940000  -2.6220000  25.8270000 -36.4320000  -3.5360000  26.6970000
 -35.7300000  -3.4030000  26.1940000 -30.9210000  -1.7250000  22.8600000
 -31.7200000  -2.2520000  22.8700000 -30.5780000  -1.8280000  21.9730000
 -30.9800000  -1.8060000  22.7480000 -26.7010000 -14.7360000  33.0820000
 -26.5230000 -15.6180000  33.4070000 -26.3830000 -14.1560000  33.7730000
 -26.6370000 -14.7750000  33.2120000 -27.0140000  -6.7400000  25.3270000
 -27.4400000  -7.3470000  24.7230000 -27.6760000  -6.0730000  25.5050000
 -27.1530000  -6.7320000  25.2730000 -21.2610000 -16.1080000  24.5800000
 -21.1940000 -17.0550000  24.4560000 -20.3920000 -15.8430000  24.8810000
 -21.1410000 -16.1950000  24.6030000 -20.1420000 -11.8170000  26.4210000
 -20.9210000 -11.7070000  26.9660000 -19.7980000 -10.9310000  26.3120000
 -20.1980000 -11.6900000  26.4770000 -29.0460000 -15.6890000  20.5690000
 -29.3120000 -16.1520000  21.3640000 -29.0300000 -16.3660000  19.8930000
 -29.0780000 -15.8350000  20.5850000 -28.8110000  -8.5010000  33.8530000
 -28.9400000  -9.3660000  34.2420000 -28.3680000  -8.6760000  33.0220000
 -28.7710000  -8.6340000  33.7960000 -25.9350000  -7.5490000  20.8720000
 -25.1650000  -7.5280000  21.4390000 -25.6160000  -7.9160000  20.0480000
 -25.7960000  -7.5930000  20.8390000 -20.2000000  -7.9120000  22.6020000
 -20.5650000  -7.2710000  23.2120000 -20.9650000  -8.3340000  22.2100000
 -20.3440000  -7.8840000  22.6300000 -22.2170000  -6.3120000  19.6190000
 -22.1750000  -6.4460000  18.6720000 -21.3320000  -6.0450000  19.8620000
 -22.0980000  -6.2950000  19.5290000 -21.8750000 -15.8820000  21.7070000
 -21.7420000 -16.0260000  22.6440000 -22.7420000 -15.4830000  21.6470000
 -21.9680000 -15.8500000  21.8200000 -25.2240000  -4.1450000  26.2080000
 -25.0480000  -3.2950000  25.8050000 -25.9840000  -4.4820000  25.7340000
 -25.2980000  -4.0790000  26.0960000 -25.4350000  -0.8200000  27.4600000
 -24.8480000  -0.0830000  27.2850000 -26.2160000  -0.6340000  26.9410000
 -25.4590000  -0.7020000  27.3710000 -33.1130000 -13.5650000  25.9800000
 -33.5190000 -13.5660000  25.1130000 -33.5980000 -12.9020000  26.4710000
 -33.2260000 -13.4800000  25.9320000 -34.9930000 -17.1690000  33.9980000
 -34.7870000 -16.2710000  34.2550000 -35.3500000 -17.5700000  34.7910000
 -35.0120000 -17.1060000  34.1320000 -33.6860000 -16.3780000  24.6980000
 -34.4430000 -16.3910000  25.2830000 -33.1530000 -17.1220000  24.9790000
 -33.7140000 -16.4750000  24.8090000 -26.6450000 -12.6800000  34.9970000
 -26.0600000 -12.3670000  35.6860000 -27.3710000 -12.0550000  34.9970000
 -26.6630000 -12.5600000  35.0850000 -29.0260000 -12.1790000  24.5290000
 -29.8510000 -12.1970000  24.0440000 -29.2760000 -12.3650000  25.4340000
 -29.1630000 -12.2050000  24.5830000 -31.9110000  -2.5140000  29.1460000
 -32.1730000  -2.8890000  29.9870000 -31.1800000  -3.0590000  28.8570000
 -31.8510000  -2.6320000  29.2160000 -33.6730000  -4.3210000  27.8610000
 -34.3970000  -4.0180000  27.3130000 -33.0800000  -3.5710000  27.9090000
 -33.6900000  -4.1860000  27.7970000 -34.2010000 -10.5570000  19.1990000
 -34.8030000  -9.8200000  19.1030000 -33.5710000 -10.2670000  19.8600000
 -34.1970000 -10.4260000  19.2710000 -29.7730000  -2.0950000  20.4920000
 -29.3150000  -2.9170000  20.6640000 -29.0750000  -1.4550000  20.3530000
 -29.6250000  -2.1180000  20.4960000 -31.0500000 -11.6040000  29.4740000
 -30.1690000 -11.3120000  29.7060000 -30.9650000 -11.9380000  28.5810000
 -30.9260000 -11.6090000  29.3890000 -35.0860000  -3.8460000  38.1450000
 -34.6030000  -3.2850000  37.5380000 -35.5280000  -4.4820000  37.5840000
 -35.0800000  -3.8550000  37.9960000 -31.4600000  -2.1100000  36.9430000
 -30.8850000  -2.1970000  37.7040000 -31.5010000  -1.1680000  36.7820000
 -31.3910000  -2.0010000  37.0190000 -26.7530000 -15.7850000  27.6580000
 -27.7050000 -15.8480000  27.7290000 -26.4250000 -16.5130000  28.1860000
 -26.8340000 -15.8860000  27.7350000 -21.6250000  -7.7770000  29.7800000
 -21.1850000  -7.2700000  30.4630000 -22.2960000  -8.2740000  30.2460000
 -21.6530000  -7.7760000  29.9270000 -20.4090000  -6.0090000  32.0080000
 -21.1230000  -5.4040000  31.8090000 -19.6930000  -5.4460000  32.3050000
 -20.4090000  -5.8600000  32.0210000 -31.1050000  -8.2560000  36.8440000
 -31.2620000  -9.2000000  36.8080000 -31.1930000  -7.9640000  35.9370000
 -31.1370000  -8.3400000  36.7230000 -26.8970000  -4.9480000  20.9460000
 -26.5930000  -5.8410000  21.1020000 -26.3700000  -4.4080000  21.5350000
 -26.7910000  -4.9930000  21.0410000 -24.2740000 -14.4600000  21.5220000
 -24.1700000 -14.1160000  22.4090000 -24.4050000 -13.6840000  20.9770000
 -24.2780000 -14.3170000  21.5660000 -21.6320000 -13.6120000  28.8490000
 -20.7200000 -13.6010000  29.1420000 -21.6320000 -14.1970000  28.0910000
 -21.5150000 -13.6860000  28.7900000 -23.7870000  -9.2750000  30.7000000
 -24.6620000  -9.5320000  30.4100000 -23.4350000 -10.0580000  31.1240000
 -23.8550000  -9.4080000  30.7170000 -34.0780000  -2.3590000  35.8580000
 -34.3300000  -1.4550000  36.0490000 -33.1730000  -2.4240000  36.1610000
 -33.9940000  -2.2510000  35.9210000 -32.0450000 -17.2860000  19.5090000
 -31.7030000 -17.2770000  20.4030000 -32.5300000 -16.4640000  19.4310000
 -32.0640000 -17.1790000  19.6130000 -29.4420000 -12.7750000  27.1630000
 -29.3560000 -13.5590000  27.7060000 -29.0030000 -12.0880000  27.6630000
 -29.3750000 -12.7870000  27.2960000 -20.7800000 -15.1570000  36.5030000
 -21.6800000 -15.4850000  36.4980000 -20.4550000 -15.3340000  35.6210000
 -20.8550000 -15.2220000  36.3900000 -22.3460000 -18.6360000  21.3770000
 -22.2180000 -17.7210000  21.1250000 -23.2950000 -18.7310000  21.4620000
 -22.4510000 -18.5310000  21.3560000 -26.3160000  -4.7510000  35.6330000
 -25.7350000  -4.9150000  36.3740000 -26.9100000  -4.0650000  35.9410000
 -26.3180000  -4.6840000  35.7670000 -30.0140000  -4.2870000  28.3720000
 -30.4940000  -5.0950000  28.5490000 -29.2850000  -4.3010000  28.9910000
 -29.9820000  -4.3920000  28.4740000 -19.1710000 -17.2980000  19.3780000
 -19.3470000 -16.4570000  18.9570000 -19.9800000 -17.7970000  19.2640000
 -19.2970000 -17.2540000  19.3100000 -16.6020000 -11.3700000  26.7560000
 -16.5880000 -11.6830000  27.6610000 -16.6520000 -10.4170000  26.8330000
 -16.6060000 -11.2880000  26.8820000 -27.2100000 -13.4340000  20.6390000
 -27.8350000 -14.1580000  20.6630000 -26.9910000 -13.2750000  21.5570000
 -27.2610000 -13.5060000  20.7590000 -30.4710000 -11.7860000  32.7600000
 -31.3160000 -12.1060000  33.0760000 -29.9980000 -12.5770000  32.5000000
 -30.5200000 -11.9280000  32.7670000 -33.5450000  -6.6000000  37.0930000
 -32.7330000  -7.0880000  36.9510000 -33.8140000  -6.3230000  36.2170000
 -33.4760000  -6.6270000  36.9620000 -34.6370000  -2.0280000  22.2160000
 -35.2190000  -1.5300000  22.7890000 -34.4080000  -1.4170000  21.5160000
 -34.6820000  -1.8860000  22.2000000 -20.7440000 -15.9190000  33.9340000
 -21.6100000 -16.0830000  33.5630000 -20.1610000 -16.5110000  33.4570000
 -20.7800000 -16.0160000  33.8250000 -21.0370000 -10.4690000  20.6400000
 -21.4940000 -10.7100000  21.4460000 -20.1110000 -10.6090000  20.8390000
 -20.9770000 -10.5180000  20.7690000 -31.2820000  -7.5600000  34.1210000
 -30.4030000  -7.9330000  34.0690000 -31.8200000  -8.1410000  33.5840000
 -31.2380000  -7.6820000  34.0460000 -22.2930000  -3.8490000  32.4780000
 -22.6450000  -3.9520000  33.3630000 -22.1450000  -2.9070000  32.3880000
 -22.3200000  -3.7420000  32.5800000 -20.1560000  -2.0820000  34.3570000
 -19.9580000  -2.4770000  35.2070000 -20.8280000  -1.4270000  34.5480000
 -20.2170000  -2.0490000  34.4900000 -22.9120000 -14.7520000  26.2280000
 -22.2160000 -15.1380000  25.6950000 -23.5220000 -15.4740000  26.3830000
 -22.9010000 -14.8940000  26.1790000 -24.8380000  -9.3030000  33.7700000
 -25.3950000  -9.6970000  33.0980000 -25.4150000  -8.6930000  34.2300000
 -24.9830000  -9.2750000  33.7430000 -20.9240000 -10.0420000  36.9640000
 -21.7470000  -9.7020000  36.6150000 -21.0690000 -10.0980000  37.9090000
 -21.0470000 -10.0060000  37.0410000 -27.0110000 -13.3160000  23.3030000
 -27.8350000 -13.0330000  23.6990000 -26.3340000 -12.9300000  23.8580000
 -27.0300000 -13.2310000  23.4250000 -34.0000000  -9.7250000  31.3960000
 -34.3760000  -9.8520000  32.2660000 -34.5630000 -10.2360000  30.8140000
 -34.1190000  -9.8060000  31.4330000 -24.9920000  -8.2150000  26.8510000
 -24.4470000  -7.7140000  27.4580000 -25.6860000  -7.6080000  26.5940000
 -25.0110000  -8.0740000  26.8960000 -22.2880000 -10.9690000  23.0440000
 -22.3320000 -10.3500000  23.7740000 -22.6550000 -11.7800000  23.3960000
 -22.3400000 -10.9930000  23.1830000 -27.5380000 -10.1050000  23.5230000
 -28.2100000 -10.7860000  23.5530000 -27.4600000  -9.8880000  22.5940000
 -27.6150000 -10.1640000  23.4080000 -33.8510000 -15.2520000  37.4860000
 -34.0050000 -14.9720000  36.5840000 -34.0890000 -14.4920000  38.0170000
 -33.9020000 -15.1190000  37.4390000 -26.3530000  -1.1260000  32.6410000
 -26.9010000  -1.1950000  31.8610000 -25.9880000  -2.0030000  32.7570000
 -26.3750000  -1.2470000  32.5560000 -31.9180000 -11.1310000  36.5920000
 -32.0340000 -11.4150000  35.6850000 -32.8100000 -11.0280000  36.9250000
 -32.0480000 -11.1540000  36.5180000 -32.8730000 -12.8040000  31.4380000
 -33.4640000 -13.5430000  31.2860000 -32.2620000 -12.8320000  30.7030000
 -32.8700000 -12.9020000  31.3240000 -31.4880000  -6.6120000  29.4700000
 -31.5280000  -7.5670000  29.4330000 -31.9430000  -6.3840000  30.2800000
 -31.5510000  -6.7050000  29.5690000 -23.5230000  -9.9590000  36.1520000
 -24.2150000 -10.5990000  36.3200000 -23.7310000  -9.6030000  35.2890000
 -23.6380000  -9.9960000  36.0630000 -35.5720000  -6.4120000  25.4910000
 -34.8930000  -6.6920000  26.1050000 -35.4750000  -5.4620000  25.4420000
 -35.4730000  -6.3260000  25.5640000 -30.1590000  -7.6760000  20.5780000
 -30.5410000  -7.9850000  19.7570000 -29.9190000  -6.7650000  20.4030000
 -30.1760000  -7.5990000  20.4510000 -31.3310000 -17.4060000  22.2600000
 -31.0860000 -18.2810000  22.5610000 -31.5460000 -16.9290000  23.0610000
 -31.3280000 -17.4570000  22.4010000 -26.0990000 -15.6570000  24.7980000
 -26.3930000 -14.9420000  24.2340000 -26.3700000 -15.3960000  25.6780000
 -26.1710000 -15.5320000  24.8380000 -27.6450000  -4.0010000  29.8800000
 -27.7100000  -4.5210000  30.6820000 -27.1010000  -3.2520000  30.1230000
 -27.5850000  -3.9720000  30.0140000 -34.4930000 -13.1410000  20.2940000
 -35.4180000 -13.3840000  20.3320000 -34.4970000 -12.2210000  20.0290000
 -34.6110000 -13.0540000  20.2650000 -32.5240000  -8.7880000  23.5830000
 -31.7010000  -8.3020000  23.5450000 -32.4730000  -9.2830000  24.4000000
 -32.4120000  -8.7890000  23.6820000 -35.8330000  -0.9130000  27.6590000
 -36.3750000  -0.4900000  28.3260000 -34.9350000  -0.7160000  27.9210000
 -35.7890000  -0.8330000  27.7780000 -30.2300000  -7.1510000  23.5850000
 -30.7530000  -6.4480000  23.9710000 -30.2170000  -6.9550000  22.6490000
 -30.2940000  -7.0360000  23.5150000 -23.1860000 -12.2840000  19.7490000
 -22.7090000 -12.6370000  19.0000000 -22.6850000 -11.5120000  20.0120000
 -23.0610000 -12.2300000  19.6870000 -30.3850000  -5.1080000  33.1540000
 -31.1670000  -4.7020000  32.7850000 -30.6720000  -5.9790000  33.4280000
 -30.5210000  -5.1680000  33.1420000 -21.3340000 -21.2050000  29.1480000
 -21.1890000 -20.7990000  30.0030000 -22.2800000 -21.1360000  29.0090000
 -21.4360000 -21.1440000  29.2400000 -31.3590000  -9.1510000  31.6330000
 -31.0340000  -9.9540000  32.0400000 -32.2270000  -9.3830000  31.3070000
 -31.4280000  -9.2830000  31.6430000 -35.7420000  -8.2170000  37.6020000
 -34.9400000  -7.7070000  37.4920000 -36.1920000  -7.7990000  38.3370000
 -35.6970000  -8.0980000  37.6820000 -25.2460000 -11.0690000  26.8620000
 -24.7480000 -11.2760000  26.0710000 -25.0620000 -10.1440000  27.0260000
 -25.1590000 -10.9770000  26.7820000 -30.6210000 -12.3230000  20.6030000
 -31.1030000 -13.1400000  20.4720000 -30.1870000 -12.1640000  19.7650000
 -30.6280000 -12.4070000  20.4790000 -20.5580000  -0.2970000  28.9300000
 -20.7050000  -1.2400000  29.0110000 -19.9050000  -0.0990000  29.6010000
 -20.4940000  -0.3930000  29.0260000 -19.2250000  -4.0190000  27.7160000
 -20.0700000  -3.6060000  27.9000000 -19.3570000  -4.9410000  27.9340000
 -19.3500000  -4.0840000  27.7670000 -27.9250000 -10.4730000  27.4850000
 -28.3320000  -9.7130000  27.0690000 -27.0640000 -10.5380000  27.0750000
 -27.8670000 -10.3840000  27.3800000 -23.3880000  -9.2340000  24.9670000
 -22.7150000  -8.8220000  25.5070000 -24.1980000  -8.7880000  25.2130000
 -23.4050000  -9.1240000  25.0670000 -35.2350000  -8.7430000  28.4700000
 -34.2780000  -8.7590000  28.4510000 -35.4800000  -9.5570000  28.9100000
 -35.1430000  -8.8490000  28.5240000 -24.9310000 -14.7330000  31.0090000
 -25.3850000 -14.2910000  30.2910000 -25.4730000 -14.5580000  31.7780000
 -25.0580000 -14.6540000  31.0150000 -19.7660000  -9.8050000  29.9530000
 -20.1550000 -10.2790000  30.6890000 -20.3020000  -9.0160000  29.8670000
 -19.8850000  -9.7650000  30.0360000 -26.3920000 -13.2570000  28.8190000
 -25.7660000 -12.8070000  28.2520000 -26.5340000 -14.1040000  28.3950000
 -26.3300000 -13.3080000  28.6920000 -27.8570000  -5.3800000  32.3180000
 -27.4650000  -4.5590000  32.6140000 -28.7700000  -5.3250000  32.6000000
 -27.9230000  -5.2680000  32.3920000 -26.3680000 -16.5120000  21.5750000
 -27.1280000 -16.2640000  21.0470000 -25.8140000 -15.7320000  21.5760000
 -26.3950000 -16.3800000  21.5080000 -33.8330000 -13.2190000  23.2920000
 -33.9230000 -13.4900000  22.3790000 -34.7320000 -13.0620000  23.5850000
 -33.9610000 -13.2330000  23.2130000 -24.2460000 -17.3280000  26.0880000
 -24.9090000 -16.9220000  25.5280000 -23.5510000 -17.5910000  25.4850000
 -24.2420000 -17.3090000  25.9390000 -22.6340000 -12.0960000  31.4670000
 -22.8980000 -12.7480000  32.1170000 -22.4150000 -12.6090000  30.6890000
 -22.6400000 -12.2450000  31.4510000 -31.8870000 -10.3030000  25.6920000
 -31.6990000 -11.0550000  25.1300000 -31.0320000  -9.9120000  25.8620000
 -31.7550000 -10.3490000  25.6420000 -30.2310000 -15.4430000  34.9320000
 -29.3100000 -15.3670000  35.1760000 -30.6830000 -14.8260000  35.5070000
 -30.1710000 -15.3550000  35.0360000 -33.2410000 -18.4330000  27.8510000
 -33.0700000 -17.5120000  28.0500000 -32.6740000 -18.9170000  28.4520000
 -33.1470000 -18.3770000  27.9530000 -29.4370000  -5.0960000  19.9750000
 -28.5930000  -5.1340000  20.4260000 -29.2150000  -4.8910000  19.0670000
 -29.3000000  -5.0750000  19.9170000 -32.3870000  -9.3060000  28.2440000
 -32.1300000  -9.7240000  27.4220000 -32.3030000  -9.9980000  28.9000000
 -32.3420000  -9.4480000  28.2230000 -25.0750000  -4.8510000  28.7030000
 -24.9760000  -4.6040000  27.7830000 -25.9280000  -4.5010000  28.9550000
 -25.1710000  -4.7750000  28.6180000 -27.6850000  -0.4370000  26.0420000
 -27.8690000  -1.2640000  25.5960000 -27.9960000   0.2360000  25.4370000
 -27.7480000  -0.4570000  25.9070000 -21.5800000 -18.5670000  37.6670000
 -22.1210000 -19.0820000  38.2660000 -22.0450000 -17.7340000  37.5800000
 -21.7090000 -18.5260000  37.7330000 -23.9860000  -2.4250000  29.2420000
 -24.5300000  -1.8250000  28.7310000 -24.3780000  -3.2860000  29.0960000
 -24.1050000  -2.4580000  29.1580000 -20.2110000 -11.0160000  32.8650000
 -21.1070000 -11.3410000  32.7780000 -20.3110000 -10.1210000  33.1900000
 -20.3390000 -10.9430000  32.8960000 -29.8950000  -0.0570000  28.2150000
 -29.9280000  -0.7440000  28.8800000 -29.4180000  -0.4520000  27.4850000
 -29.8390000  -0.1950000  28.2070000 -28.0150000  -9.3290000  20.9030000
 -27.2850000  -8.7090000  20.8920000 -28.7970000  -8.7780000  20.8720000
 -28.0220000  -9.1790000  20.8970000 -28.3830000 -11.9480000  30.0190000
 -28.8320000 -12.7020000  30.4010000 -27.6610000 -12.3280000  29.5190000
 -28.3480000 -12.0930000  30.0050000 -26.8480000  -7.8240000  31.7310000
 -27.1250000  -7.0000000  32.1330000 -25.8970000  -7.8370000  31.8400000
 -26.7610000  -7.7200000  31.7960000 -31.3600000 -15.2110000  24.0020000
 -31.5090000 -14.2680000  23.9240000 -32.1530000 -15.5430000  24.4260000
 -31.4800000 -15.1330000  24.0460000 -27.4920000  -0.6010000  29.9800000
 -26.7030000  -0.0630000  29.9260000 -28.0920000  -0.2090000  29.3460000
 -27.4680000  -0.4820000  29.8920000 -27.7100000 -14.8670000  36.4210000
 -28.1750000 -14.2690000  37.0050000 -27.1150000 -14.3030000  35.9260000
 -27.6930000 -14.7190000  36.4320000 -32.1050000 -14.7220000  20.5970000
 -33.0220000 -14.9370000  20.7630000 -31.6300000 -15.1100000  21.3320000
 -32.1610000 -14.7990000  20.7120000 -24.5030000  -1.9710000  24.8320000
 -24.8700000  -1.3900000  25.4970000 -23.6110000  -1.6480000  24.6980000
 -24.4350000  -1.8550000  24.9000000 -26.3970000  -9.5340000  29.8170000
 -26.6650000  -8.8910000  30.4740000 -27.1960000  -9.7160000  29.3210000
 -26.5340000  -9.4750000  29.8370000 -26.4200000 -11.2000000  32.3800000
 -26.5840000 -10.8910000  31.4880000 -27.2820000 -11.4640000  32.7020000
 -26.5510000 -11.1940000  32.3070000 -26.1980000 -16.9790000  36.5170000
 -26.2010000 -17.2690000  35.6050000 -26.8700000 -16.2980000  36.5540000
 -26.2850000 -16.9290000  36.4050000 -34.5400000 -18.3160000  20.5250000
 -34.5390000 -17.5740000  21.1290000 -34.0360000 -18.0120000  19.7710000
 -34.4750000 -18.1820000  20.5060000 -33.6230000  -6.2800000  20.8090000
 -33.5370000  -6.3310000  19.8570000 -34.1770000  -5.5120000  20.9580000
 -33.6830000  -6.1880000  20.7060000 -26.4880000  -7.5370000  34.9160000
 -27.3060000  -7.6930000  34.4440000 -26.4400000  -6.5850000  35.0050000
 -26.5860000  -7.4350000  34.8670000 -22.1380000 -12.8410000  36.1460000
 -21.4250000 -13.4730000  36.2420000 -21.6980000 -12.0040000  36.0000000
 -21.9910000 -12.8150000  36.1390000 -20.6650000  -1.5640000  31.7150000
 -20.3840000  -1.6600000  32.6250000 -21.4460000  -1.0130000  31.7640000
 -20.7300000  -1.5060000  31.8380000 -33.0130000  -6.9020000  26.7740000
 -33.1010000  -6.1220000  27.3230000 -32.9420000  -7.6260000  27.3970000
 -33.0160000  -6.8950000  26.9240000 -32.9120000 -11.7610000  33.9580000
 -33.0030000 -11.8810000  33.0130000 -33.6350000 -11.1830000  34.1960000
 -33.0160000 -11.7020000  33.8670000 -31.8300000 -18.2450000  25.4100000
 -32.2350000 -18.5760000  26.2120000 -31.7220000 -19.0190000  24.8580000
 -31.8670000 -18.3860000  25.4420000 -31.2860000 -12.1990000  23.2960000
 -30.9130000 -12.2640000  22.4170000 -32.1910000 -12.4950000  23.1950000
 -31.3550000 -12.2460000  23.1710000 -31.5870000  -5.0420000  21.7300000
 -32.3200000  -5.5310000  21.3540000 -30.9280000  -5.0290000  21.0380000
 -31.5970000  -5.1030000  21.5940000 -29.1410000 -15.3020000  25.6810000
 -29.9930000 -15.4400000  25.2690000 -29.0910000 -14.3550000  25.8170000
 -29.2430000 -15.1980000  25.6460000 -34.2690000 -14.6340000  34.8720000
 -33.4780000 -14.6010000  34.3350000 -34.6300000 -13.7480000  34.8240000
 -34.2140000 -14.5170000  34.7970000 -28.0960000 -11.6310000  18.9200000
 -28.1150000 -10.9810000  19.6220000 -27.7410000 -12.4190000  19.3320000
 -28.0530000 -11.6480000  19.0620000 -23.1130000 -16.3810000  36.3410000
 -23.0520000 -16.7280000  35.4510000 -24.0530000 -16.3330000  36.5160000
 -23.2260000 -16.4190000  36.2490000 -32.7260000  -4.3330000  31.6990000
 -33.2960000  -3.6460000  32.0460000 -33.1780000  -5.1490000  31.9130000
 -32.8570000  -4.3490000  31.7710000 -26.1350000  -2.7520000  22.7900000
 -26.8200000  -2.8240000  23.4550000 -25.3360000  -2.5740000  23.2870000
 -26.1200000  -2.7390000  22.9390000 -28.4230000 -17.1280000  23.7720000
 -28.6480000 -16.3430000  24.2710000 -27.5240000 -16.9760000  23.4800000
 -28.3360000 -17.0080000  23.7990000 -22.9960000 -17.4080000  28.6420000
 -22.1250000 -17.8010000  28.6990000 -23.0950000 -17.1770000  27.7190000
 -22.8970000 -17.4290000  28.5310000 -26.0890000 -17.1410000  33.7760000
 -26.3480000 -17.9170000  33.2790000 -25.1320000 -17.1360000  33.7280000
 -26.0000000 -17.2400000  33.7070000 -22.9710000 -13.5430000  23.8900000
 -23.1920000 -13.7930000  24.7880000 -22.1550000 -14.0090000  23.7070000
 -22.8950000 -13.6350000  23.9820000 -25.1250000  -3.7800000  19.0370000
 -25.5250000  -2.9120000  19.0870000 -25.6010000  -4.3010000  19.6840000
 -25.2370000  -3.7350000  19.1260000 -29.1680000 -14.9930000  29.0570000
 -30.0200000 -15.4240000  28.9700000 -29.0700000 -14.8460000  29.9980000
 -29.2650000 -15.0290000  29.1660000 -30.5370000 -17.9720000  36.2080000
 -31.0900000 -17.6610000  36.9240000 -30.4760000 -17.2260000  35.6110000
 -30.6010000 -17.8370000  36.2230000 -31.7460000  -5.4590000  24.8930000
 -32.3820000  -5.9140000  25.4440000 -32.2350000  -4.7250000  24.5200000
 -31.8890000  -5.4230000  24.9160000 -25.8680000  -3.7880000  33.0980000
 -26.0710000  -4.0980000  33.9800000 -25.3550000  -4.4960000  32.7080000
 -25.8280000  -3.9190000  33.1610000 -20.2800000 -13.5190000  21.7260000
 -21.1030000 -14.0060000  21.6780000 -20.5320000 -12.6550000  22.0540000
 -20.4170000 -13.4710000  21.7620000 -23.2230000  -6.1860000  35.7450000
 -23.8630000  -6.7190000  36.2170000 -23.2610000  -6.5090000  34.8440000
 -23.3100000  -6.2960000  35.6900000 -29.4560000  -3.8180000  35.8800000
 -29.8430000  -4.1830000  35.0840000 -30.1050000  -3.1890000  36.1950000
 -29.5900000  -3.7850000  35.8190000 -35.1930000 -14.8380000  28.6710000
 -35.2870000 -15.3050000  27.8410000 -34.3700000 -15.1610000  29.0360000
 -35.1010000 -14.9390000  28.6120000 -20.5560000  -8.3490000  33.5620000
 -21.4470000  -8.1330000  33.8400000 -20.2800000  -7.5960000  33.0410000
 -20.6350000  -8.2250000  33.5320000 -22.1130000  -0.3870000  24.3010000
 -22.3780000  -0.4220000  23.3820000 -21.4910000  -1.1080000  24.4000000
 -22.0670000  -0.4840000  24.1960000 -24.9390000  -0.3910000  21.8120000
 -25.4550000  -1.0760000  22.2380000 -25.4220000   0.4160000  21.9860000
 -25.0670000  -0.3760000  21.8890000 -33.0300000 -15.5800000  29.9270000
 -32.5780000 -16.1590000  30.5410000 -32.4670000 -15.5650000  29.1540000
 -32.9000000 -15.6520000  29.9070000 -25.2030000   1.1520000  30.1130000
 -24.4270000   0.9960000  29.5740000 -25.2330000   2.1030000  30.2190000
 -25.1070000   1.2540000  30.0580000 -28.6330000  -2.4360000  24.3420000
 -28.8700000  -3.2490000  24.7860000 -29.4370000  -2.1580000  23.9050000
 -28.7650000  -2.5040000  24.3430000 -23.4390000  -3.0160000  35.6490000
 -23.1700000  -3.9200000  35.8090000 -24.3910000  -3.0290000  35.7500000
 -23.5260000  -3.1330000  35.6830000 -23.1300000  -7.3100000  33.3460000
 -23.7390000  -8.0460000  33.4020000 -23.5610000  -6.6860000  32.7630000
 -23.2620000  -7.3250000  33.2790000 -34.0320000  -6.7220000  31.7710000
 -34.4920000  -6.3780000  31.0060000 -33.9510000  -7.6600000  31.5990000
 -34.0800000  -6.7980000  31.6510000 -35.8360000  -9.0810000  23.9560000
 -34.8800000  -9.0490000  23.9830000 -36.1070000  -8.1640000  23.9940000
 -35.7470000  -8.9600000  23.9640000 -30.9950000 -13.6220000  36.8990000
 -31.7600000 -14.0190000  37.3170000 -31.2500000 -12.7110000  36.7510000
 -31.1260000 -13.5560000  36.9340000 -34.4760000 -15.7910000  21.9270000
 -34.1680000 -15.7260000  22.8310000 -35.3940000 -16.0490000  22.0060000
 -34.5550000 -15.8160000  22.0530000 -25.1670000 -11.5300000  24.3110000
 -24.5470000 -11.0860000  23.7320000 -25.9780000 -11.0260000  24.2260000
 -25.1910000 -11.4080000  24.2260000 -32.8750000  -3.3940000  23.5430000
 -33.5760000  -2.9960000  23.0260000 -32.4430000  -3.9970000  22.9370000
 -32.9090000  -3.4200000  23.3990000 -24.2740000  -5.4510000  31.3650000
 -24.4470000  -5.5280000  30.4270000 -23.4910000  -4.9040000  31.4200000
 -24.1960000  -5.3910000  31.2520000 -29.4560000  -9.0670000  25.6840000
 -28.9420000  -9.6670000  25.1440000 -29.7300000  -8.3770000  25.0800000
 -29.4260000  -9.0560000  25.5380000 -22.4280000  -0.5000000  34.9750000
 -22.0200000  -0.3280000  35.8230000 -22.6970000  -1.4170000  35.0200000
 -22.4100000  -0.5950000  35.0890000 -23.4150000 -15.8380000  33.2430000
 -23.7010000 -15.0120000  33.6350000 -23.6370000 -15.7540000  32.3160000
 -23.4800000 -15.7210000  33.1750000 -19.7620000  -1.2080000  21.9730000
 -19.1740000  -1.3850000  21.2380000 -20.3520000  -0.5280000  21.6490000
 -19.7620000  -1.1440000  21.8370000 -19.9210000  -2.8530000  36.9680000
 -20.6940000  -2.8220000  37.5320000 -19.3040000  -2.2430000  37.3740000
 -19.9410000  -2.7710000  37.0930000 -19.3990000 -14.5020000  25.7290000
 -18.8170000 -14.0170000  25.1430000 -19.9650000 -13.8320000  26.1120000
 -19.3970000 -14.3540000  25.7030000 -25.0200000  -7.7260000  37.0370000
 -25.8310000  -7.6880000  36.5300000 -24.6560000  -8.5890000  36.8420000
 -25.0780000  -7.8310000  36.9470000 -31.6800000 -15.6830000  27.5950000
 -31.8590000 -15.0930000  26.8630000 -31.1950000 -16.4100000  27.2050000
 -31.6410000 -15.7000000  27.4520000 -35.3940000  -5.5860000  29.9770000
 -35.1350000  -4.8930000  29.3690000 -36.2670000  -5.3270000  30.2760000
 -35.4720000  -5.4640000  29.9370000 -21.7070000  -7.9960000  26.9580000
 -20.8530000  -8.3370000  26.6880000 -21.6850000  -8.0250000  27.9140000
 -21.5950000  -8.0440000  27.0450000 -28.7760000 -11.0850000  34.8630000
 -29.5300000 -11.4150000  34.3740000 -28.9780000 -11.2830000  35.7770000
 -28.8980000 -11.1530000  34.9170000 -25.2260000 -11.7620000  36.9320000
 -26.0100000 -11.8010000  37.4800000 -24.5900000 -12.3130000  37.3860000
 -25.2450000 -11.8370000  37.0600000 -19.6300000 -17.9700000  26.4660000
 -20.2260000 -18.3200000  27.1280000 -18.9120000 -18.6020000  26.4310000
 -19.6140000 -18.0950000  26.5460000 -23.5600000  -7.3250000  22.1730000
 -23.1650000  -6.9840000  22.9750000 -23.0700000  -6.9060000  21.4660000
 -23.4470000  -7.2280000  22.1850000 -23.8320000 -13.2390000  34.1350000
 -23.1380000 -13.0450000  34.7670000 -24.4670000 -12.5330000  34.2530000
 -23.8250000 -13.1240000  34.2310000 -23.3660000  -0.9690000  31.6100000
 -23.8400000  -0.1360000  31.6030000 -23.8970000  -1.5500000  31.0660000
 -23.4950000  -0.9370000  31.5400000 -31.2550000 -16.2980000  13.5940000
 -31.0260000 -16.3260000  14.5230000 -31.8840000 -17.0100000  13.4810000
 -31.3050000 -16.3930000  13.6990000 -33.8550000  -2.1120000  13.8540000
 -34.8100000  -2.1800000  13.8220000 -33.6670000  -1.8050000  14.7400000
 -33.9530000  -2.0810000  13.9630000 -29.0900000  -4.6680000   7.0170000
 -29.2640000  -4.5070000   7.9450000 -29.8550000  -5.1540000   6.7110000
 -29.2100000  -4.7100000   7.0970000 -33.3390000 -18.0120000  13.1000000
 -33.8990000 -17.5640000  13.7340000 -33.4850000 -18.9430000  13.2670000
 -33.4280000 -18.0740000  13.2020000 -32.5190000  -9.7710000   2.3480000
 -32.6730000  -9.3140000   3.1750000 -31.8080000 -10.3810000   2.5400000
 -32.4480000  -9.7910000   2.4780000 -29.1250000 -14.5620000  12.9530000
 -29.7280000 -15.2030000  13.3280000 -28.3350000 -14.6310000  13.4910000
 -29.1010000 -14.6520000  13.0700000 -28.5860000 -18.1250000  19.2310000
 -27.6950000 -18.3540000  18.9670000 -29.1090000 -18.2460000  18.4380000
 -28.5380000 -18.1690000  19.0960000 -22.3580000  -3.6120000   0.5340000
 -23.2200000  -3.2840000   0.2780000 -22.4550000  -4.5640000   0.5330000
 -22.4810000  -3.6920000   0.5010000 -35.6320000  -3.5150000   7.3110000
 -35.5940000  -2.6220000   6.9670000 -36.4320000  -3.5360000   7.8370000
 -35.7300000  -3.4030000   7.3340000 -30.9210000  -1.7250000   4.0000000
 -31.7200000  -2.2520000   4.0100000 -30.5780000  -1.8280000   3.1130000
 -30.9800000  -1.8060000   3.8880000 -26.7010000 -14.7360000  14.2210000
 -26.5230000 -15.6180000  14.5470000 -26.3830000 -14.1560000  14.9130000
 -26.6370000 -14.7750000  14.3520000 -27.0140000  -6.7400000   6.4670000
 -27.4400000  -7.3470000   5.8630000 -27.6760000  -6.0730000   6.6450000
 -27.1530000  -6.7320000   6.4130000 -21.2610000 -16.1080000   5.7200000
 -21.1940000 -17.0550000   5.5960000 -20.3920000 -15.8430000   6.0210000
 -21.1410000 -16.1950000   5.7430000 -20.1420000 -11.8170000   7.5610000
 -20.9210000 -11.7070000   8.1060000 -19.7980000 -10.9310000   7.4520000
 -20.1980000 -11.6900000   7.6170000 -29.0460000 -15.6890000   1.7090000
 -29.3120000 -16.1520000   2.5040000 -29.0300000 -16.3660000   1.0330000
 -29.0780000 -15.8350000   1.7250000 -28.8110000  -8.5010000  14.9930000
 -28.9400000  -9.3660000  15.3820000 -28.3680000  -8.6760000  14.1620000
 -28.7710000  -8.6340000  14.9360000 -20.2000000  -7.9120000   3.7420000
 -20.5650000  -7.2710000   4.3520000 -20.9650000  -8.3340000   3.3500000
 -20.3440000  -7.8840000   3.7700000 -22.2170000  -6.3120000   0.7590000
 -22.1750000  -6.4460000  -0.1880000 -21.3320000  -6.0450000   1.0020000
 -22.0980000  -6.2950000   0.6690000 -21.8750000 -15.8820000   2.8470000
 -21.7420000 -16.0260000   3.7840000 -22.7420000 -15.4830000   2.7870000
 -21.9680000 -15.8500000   2.9600000 -25.2240000  -4.1450000   7.3480000
 -25.0480000  -3.2950000   6.9450000 -25.9840000  -4.4820000   6.8740000
 -25.2980000  -4.0790000   7.2360000 -25.4350000  -0.8200000   8.6000000
 -24.8480000  -0.0830000   8.4250000 -26.2160000  -0.6340000   8.0810000
 -25.4590000  -0.7020000   8.5110000 -33.1130000 -13.5650000   7.1200000
 -33.5190000 -13.5660000   6.2530000 -33.5980000 -12.9020000   7.6110000
 -33.2260000 -13.4800000   7.0720000 -34.9930000 -17.1690000  15.1380000
 -34.7870000 -16.2710000  15.3950000 -35.3500000 -17.5700000  15.9310000
 -35.0120000 -17.1060000  15.2720000 -33.6860000 -16.3780000   5.8380000
 -34.4430000 -16.3910000   6.4230000 -33.1530000 -17.1220000   6.1190000
 -33.7140000 -16.4750000   5.9490000 -26.6450000 -12.6800000  16.1370000
 -26.0600000 -12.3670000  16.8260000 -27.3710000 -12.0550000  16.1370000
 -26.6630000 -12.5600000  16.2250000 -29.0260000 -12.1790000   5.6690000
 -29.8510000 -12.1970000   5.1840000 -29.2760000 -12.3650000   6.5740000
 -29.1630000 -12.2050000   5.7230000 -31.9110000  -2.5140000  10.2860000
 -32.1730000  -2.8890000  11.1270000 -31.1800000  -3.0590000   9.9970000
 -31.8510000  -2.6320000  10.3560000 -33.6730000  -4.3210000   9.0010000
 -34.3970000  -4.0180000   8.4530000 -33.0800000  -3.5710000   9.0490000
 -33.6900000  -4.1860000   8.9370000 -34.2010000 -10.5570000   0.3390000
 -34.8030000  -9.8200000   0.2430000 -33.5710000 -10.2670000   1.0000000
 -34.1970000 -10.4260000   0.4110000 -29.7730000  -2.0950000   1.6320000
 -29.3150000  -2.9170000   1.8040000 -29.0750000  -1.4550000   1.4930000
 -29.6250000  -2.1180000   1.6360000 -31.0500000 -11.6040000  10.6140000
 -30.1690000 -11.3120000  10.8460000 -30.9650000 -11.9380000   9.7210000
 -30.9260000 -11.6090000  10.5290000 -35.0860000  -3.8460000  19.2850000
 -34.6030000  -3.2850000  18.6780000 -35.5280000  -4.4820000  18.7240000
 -35.0800000  -3.8550000  19.1360000 -31.4600000  -2.1100000  18.0830000
 -30.8850000  -2.1970000  18.8440000 -31.5010000  -1.1680000  17.9210000
 -31.3910000  -2.0010000  18.1590000 -26.7530000 -15.7850000   8.7980000
 -27.7050000 -15.8480000   8.8690000 -26.4250000 -16.5130000   9.3260000
 -26.8340000 -15.8860000   8.8750000 -21.6250000  -7.7770000  10.9200000
 -21.1850000  -7.2700000  11.6030000 -22.2960000  -8.2740000  11.3860000
 -21.6530000  -7.7760000  11.0670000 -20.4090000  -6.0090000  13.1480000
 -21.1230000  -5.4040000  12.9490000 -19.6930000  -5.4460000  13.4450000
 -20.4090000  -5.8600000  13.1610000 -31.1050000  -8.2560000  17.9840000
 -31.2620000  -9.2000000  17.9480000 -31.1930000  -7.9640000  17.0770000
 -31.1370000  -8.3400000  17.8630000 -24.2740000 -14.4600000   2.6620000
 -24.1700000 -14.1160000   3.5490000 -24.4050000 -13.6840000   2.1170000
 -24.2780000 -14.3170000   2.7060000 -21.6320000 -13.6120000   9.9890000
 -20.7200000 -13.6010000  10.2820000 -21.6320000 -14.1970000   9.2310000
 -21.5150000 -13.6860000   9.9300000 -23.7870000  -9.2750000  11.8400000
 -24.6620000  -9.5320000  11.5500000 -23.4350000 -10.0580000  12.2640000
 -23.8550000  -9.4080000  11.8570000 -34.0780000  -2.3590000  16.9980000
 -34.3300000  -1.4550000  17.1890000 -33.1730000  -2.4240000  17.3010000
 -33.9940000  -2.2510000  17.0610000 -32.0450000 -17.2860000   0.6490000
 -31.7030000 -17.2770000   1.5430000 -32.5300000 -16.4640000   0.5710000
 -32.0640000 -17.1790000   0.7530000 -29.4420000 -12.7750000   8.3030000
 -29.3560000 -13.5590000   8.8460000 -29.0030000 -12.0880000   8.8030000
 -29.3750000 -12.7870000   8.4360000 -20.7800000 -15.1570000  17.6430000
 -21.6800000 -15.4850000  17.6380000 -20.4550000 -15.3340000  16.7610000
 -20.8550000 -15.2220000  17.5300000 -22.3460000 -18.6360000   2.5170000
 -22.2180000 -17.7210000   2.2650000 -23.2950000 -18.7310000   2.6020000
 -22.4510000 -18.5310000   2.4960000 -26.3160000  -4.7510000  16.7730000
 -25.7350000  -4.9150000  17.5140000 -26.9100000  -4.0650000  17.0810000
 -26.3180000  -4.6840000  16.9070000 -30.0140000  -4.2870000   9.5120000
 -30.4940000  -5.0950000   9.6890000 -29.2850000  -4.3010000  10.1310000
 -29.9820000  -4.3920000   9.6140000 -19.1710000 -17.2980000   0.5180000
 -19.3470000 -16.4570000   0.0970000 -19.9800000 -17.7970000   0.4040000
 -19.2970000 -17.2540000   0.4500000 -16.6020000 -11.3700000   7.8960000
 -16.5880000 -11.6830000   8.8010000 -16.6520000 -10.4170000   7.9730000
 -16.6060000 -11.2880000   8.0220000 -27.2100000 -13.4340000   1.7790000
 -27.8350000 -14.1580000   1.8030000 -26.9910000 -13.2750000   2.6970000
 -27.2610000 -13.5060000   1.8990000 -30.4710000 -11.7860000  13.8990000
 -31.3160000 -12.1060000  14.2160000 -29.9980000 -12.5770000  13.6400000
 -30.5200000 -11.9280000  13.9070000 -33.5450000  -6.6000000  18.2330000
 -32.7330000  -7.0880000  18.0910000 -33.8140000  -6.3230000  17.3570000
 -33.4760000  -6.6270000  18.1020000 -34.6370000  -2.0280000   3.3560000
 -35.2190000  -1.5300000   3.9290000 -34.4080000  -1.4170000   2.6560000
 -34.6820000  -1.8860000   3.3400000 -20.7440000 -15.9190000  15.0740000
 -21.6100000 -16.0830000  14.7030000 -20.1610000 -16.5110000  14.5960000
 -20.7800000 -16.0160000  14.9650000 -21.0370000 -10.4690000   1.7800000
 -21.4940000 -10.7100000   2.5860000 -20.1110000 -10.6090000   1.9790000
 -20.9770000 -10.5180000   1.9090000 -31.2820000  -7.5600000  15.2610000
 -30.4030000  -7.9330000  15.2090000 -31.8200000  -8.1410000  14.7240000
 -31.2380000  -7.6820000  15.1860000 -22.2930000  -3.8490000  13.6180000
 -22.6450000  -3.9520000  14.5030000 -22.1450000  -2.9070000  13.5280000
 -22.3200000  -3.7420000  13.7200000 -22.9120000 -14.7520000   7.3680000
 -22.2160000 -15.1380000   6.8350000 -23.5220000 -15.4740000   7.5230000
 -22.9010000 -14.8940000   7.3190000 -24.8380000  -9.3030000  14.9100000
 -25.3950000  -9.6970000  14.2380000 -25.4150000  -8.6930000  15.3700000
 -24.9830000  -9.2750000  14.8830000 -20.9240000 -10.0420000  18.1040000
 -21.7470000  -9.7020000  17.7550000 -21.0690000 -10.0980000  19.0490000
 -21.0470000 -10.0060000  18.1800000 -27.0110000 -13.3160000   4.4430000
 -27.8350000 -13.0330000   4.8390000 -26.3340000 -12.9300000   4.9980000
 -27.0300000 -13.2310000   4.5650000 -34.0000000  -9.7250000  12.5360000
 -34.3760000  -9.8520000  13.4060000 -34.5630000 -10.2360000  11.9540000
 -34.1190000  -9.8060000  12.5730000 -24.9920000  -8.2150000   7.9910000
 -24.4470000  -7.7140000   8.5980000 -25.6860000  -7.6080000   7.7340000
 -25.0110000  -8.0740000   8.0360000 -22.2880000 -10.9690000   4.1840000
 -22.3320000 -10.3500000   4.9140000 -22.6550000 -11.7800000   4.5360000
 -22.3400000 -10.9930000   4.3230000 -27.5380000 -10.1050000   4.6630000
 -28.2100000 -10.7860000   4.6930000 -27.4600000  -9.8880000   3.7340000
 -27.6150000 -10.1640000   4.5480000 -33.8510000 -15.2520000  18.6260000
 -34.0050000 -14.9720000  17.7240000 -34.0890000 -14.4920000  19.1570000
 -33.9020000 -15.1190000  18.5790000 -26.3530000  -1.1260000  13.7810000
 -26.9010000  -1.1950000  13.0010000 -25.9880000  -2.0030000  13.8970000
 -26.3750000  -1.2470000  13.6960000 -31.9180000 -11.1310000  17.7320000
 -32.0340000 -11.4150000  16.8250000 -32.8100000 -11.0280000  18.0650000
 -32.0480000 -11.1540000  17.6590000 -32.8730000 -12.8040000  12.5780000
 -33.4640000 -13.5430000  12.4260000 -32.2620000 -12.8320000  11.8430000
 -32.8700000 -12.9020000  12.4640000 -31.4880000  -6.6120000  10.6100000
 -31.5280000  -7.5670000  10.5730000 -31.9430000  -6.3840000  11.4200000
 -31.5510000  -6.7050000  10.7090000 -23.5230000  -9.9590000  17.2920000
 -24.2150000 -10.5990000  17.4600000 -23.7310000  -9.6030000  16.4290000
 -23.6380000  -9.9960000  17.2030000 -35.5720000  -6.4120000   6.6310000
 -34.8930000  -6.6920000   7.2450000 -35.4750000  -5.4620000   6.5820000
 -35.4730000  -6.3260000   6.7040000 -30.1590000  -7.6760000   1.7180000
 -30.5410000  -7.9850000   0.8970000 -29.9190000  -6.7650000   1.5430000
 -30.1760000  -7.5990000   1.5910000 -31.3310000 -17.4060000   3.4000000
 -31.0860000 -18.2810000   3.7010000 -31.5460000 -16.9290000   4.2010000
 -31.3280000 -17.4570000   3.5410000 -26.0990000 -15.6570000   5.9380000
 -26.3930000 -14.9420000   5.3740000 -26.3700000 -15.3960000   6.8180000
 -26.1710000 -15.5320000   5.9780000 -27.6450000  -4.0010000  11.0200000
 -27.7100000  -4.5210000  11.8220000 -27.1010000  -3.2520000  11.2630000
 -27.5850000  -3.9720000  11.1540000 -22.1460000  -5.1050000   7.6390000
 -23.0610000  -5.0950000   7.3560000 -22.0240000  -5.9730000   8.0240000
 -22.2480000  -5.2150000   7.6520000 -34.4930000 -13.1410000   1.4340000
 -35.4180000 -13.3840000   1.4720000 -34.4970000 -12.2210000   1.1690000
 -34.6110000 -13.0540000   1.4050000 -32.5240000  -8.7880000   4.7230000
 -31.7010000  -8.3020000   4.6850000 -32.4730000  -9.2830000   5.5400000
 -32.4120000  -8.7890000   4.8220000 -35.8330000  -0.9130000   8.7990000
 -36.3750000  -0.4900000   9.4660000 -34.9350000  -0.7160000   9.0610000
 -35.7890000  -0.8330000   8.9180000 -30.2300000  -7.1510000   4.7250000
 -30.7530000  -6.4480000   5.1110000 -30.2170000  -6.9550000   3.7890000
 -30.2940000  -7.0360000   4.6550000 -23.1860000 -12.2840000   0.8890000
 -22.7090000 -12.6370000   0.1400000 -22.6850000 -11.5120000   1.1520000
 -23.0610000 -12.2300000   0.8270000 -34.2920000  -6.8480000  15.7190000
 -34.3300000  -6.5310000  14.8170000 -35.1650000  -7.2070000  15.8840000
 -34.4090000  -6.8540000  15.6250000 -30.3850000  -5.1080000  14.2940000
 -31.1670000  -4.7020000  13.9250000 -30.6720000  -5.9790000  14.5670000
 -30.5210000  -5.1680000  14.2820000 -21.3340000 -21.2050000  10.2880000
 -21.1890000 -20.7990000  11.1430000 -22.2800000 -21.1360000  10.1490000
 -21.4360000 -21.1440000  10.3800000 -31.3590000  -9.1510000  12.7730000
 -31.0340000  -9.9540000  13.1800000 -32.2270000  -9.3830000  12.4470000
 -31.4280000  -9.2830000  12.7830000 -35.7420000  -8.2170000  18.7420000
 -34.9400000  -7.7070000  18.6320000 -36.1920000  -7.7990000  19.4760000
 -35.6970000  -8.0980000  18.8220000 -25.2460000 -11.0690000   8.0020000
 -24.7480000 -11.2760000   7.2110000 -25.0620000 -10.1440000   8.1660000
 -25.1590000 -10.9770000   7.9220000 -30.6210000 -12.3230000   1.7430000
 -31.1030000 -13.1400000   1.6120000 -30.1870000 -12.1640000   0.9050000
 -30.6280000 -12.4070000   1.6190000 -20.5580000  -0.2970000  10.0700000
 -20.7050000  -1.2400000  10.1510000 -19.9050000  -0.0990000  10.7410000
 -20.4940000  -0.3930000  10.1660000 -27.9250000 -10.4730000   8.6250000
 -28.3320000  -9.7130000   8.2090000 -27.0640000 -10.5380000   8.2150000
 -27.8670000 -10.3840000   8.5190000 -23.3880000  -9.2340000   6.1070000
 -22.7150000  -8.8220000   6.6470000 -24.1980000  -8.7880000   6.3530000
 -23.4050000  -9.1240000   6.2070000 -35.2350000  -8.7430000   9.6100000
 -34.2780000  -8.7590000   9.5910000 -35.4800000  -9.5570000  10.0500000
 -35.1430000  -8.8490000   9.6640000 -24.9310000 -14.7330000  12.1490000
 -25.3850000 -14.2910000  11.4310000 -25.4730000 -14.5580000  12.9180000
 -25.0580000 -14.6540000  12.1550000 -19.7660000  -9.8050000  11.0930000
 -20.1550000 -10.2790000  11.8290000 -20.3020000  -9.0160000  11.0070000
 -19.8850000  -9.7650000  11.1760000 -26.3920000 -13.2570000   9.9590000
 -25.7660000 -12.8070000   9.3920000 -26.5340000 -14.1040000   9.5350000
 -26.3300000 -13.3080000   9.8320000 -27.8570000  -5.3800000  13.4580000
 -27.4650000  -4.5590000  13.7540000 -28.7700000  -5.3250000  13.7400000
 -27.9230000  -5.2680000  13.5320000 -26.3680000 -16.5120000   2.7150000
 -27.1280000 -16.2640000   2.1870000 -25.8140000 -15.7320000   2.7160000
 -26.3950000 -16.3800000   2.6480000 -33.8330000 -13.2190000   4.4320000
 -33.9230000 -13.4900000   3.5190000 -34.7320000 -13.0620000   4.7250000
 -33.9610000 -13.2330000   4.3530000 -24.2460000 -17.3280000   7.2280000
 -24.9090000 -16.9220000   6.6680000 -23.5510000 -17.5910000   6.6250000
 -24.2420000 -17.3090000   7.0790000 -22.6340000 -12.0960000  12.6070000
 -22.8980000 -12.7480000  13.2570000 -22.4150000 -12.6090000  11.8290000
 -22.6400000 -12.2450000  12.5910000 -31.8870000 -10.3030000   6.8320000
 -31.6990000 -11.0550000   6.2700000 -31.0320000  -9.9120000   7.0020000
 -31.7550000 -10.3490000   6.7820000 -30.2310000 -15.4430000  16.0720000
 -29.3100000 -15.3670000  16.3160000 -30.6830000 -14.8260000  16.6470000
 -30.1710000 -15.3550000  16.1760000 -33.2410000 -18.4330000   8.9910000
 -33.0700000 -17.5120000   9.1900000 -32.6740000 -18.9170000   9.5920000
 -33.1470000 -18.3770000   9.0930000 -29.4370000  -5.0960000   1.1150000
 -28.5930000  -5.1340000   1.5660000 -29.2150000  -4.8910000   0.2070000
 -29.3000000  -5.0750000   1.0570000 -32.3870000  -9.3060000   9.3840000
 -32.1300000  -9.7240000   8.5620000 -32.3030000  -9.9980000  10.0400000
 -32.3420000  -9.4480000   9.3630000 -25.0750000  -4.8510000   9.8430000
 -24.9760000  -4.6040000   8.9230000 -25.9280000  -4.5010000  10.0950000
 -25.1710000  -4.7750000   9.7580000 -27.6850000  -0.4370000   7.1820000
 -27.8690000  -1.2640000   6.7360000 -27.9960000   0.2360000   6.5770000
 -27.7480000  -0.4570000   7.0470000 -21.5800000 -18.5670000  18.8070000
 -22.1210000 -19.0820000  19.4050000 -22.0450000 -17.7340000  18.7200000
 -21.7090000 -18.5260000  18.8730000 -26.0960000  -1.2020000   0.2720000
 -25.9390000  -0.3630000  -0.1610000 -25.8350000  -1.0550000   1.1810000
 -26.0420000  -1.0760000   0.3330000 -23.9860000  -2.4250000  10.3820000
 -24.5300000  -1.8250000   9.8710000 -24.3780000  -3.2860000  10.2360000
 -24.1050000  -2.4580000  10.2980000 -20.2110000 -11.0160000  14.0050000
 -21.1070000 -11.3410000  13.9180000 -20.3110000 -10.1210000  14.3300000
 -20.3390000 -10.9430000  14.0360000 -29.8950000  -0.0570000   9.3550000
 -29.9280000  -0.7440000  10.0200000 -29.4180000  -0.4520000   8.6250000
 -29.8390000  -0.1950000   9.3470000 -28.0150000  -9.3290000   2.0430000
 -27.2850000  -8.7090000   2.0320000 -28.7970000  -8.7780000   2.0120000
 -28.0220000  -9.1790000   2.0370000 -28.3830000 -11.9480000  11.1590000
 -28.8320000 -12.7020000  11.5410000 -27.6610000 -12.3280000  10.6590000
 -28.3480000 -12.0930000  11.1440000 -26.8480000  -7.8240000  12.8710000
 -27.1250000  -7.0000000  13.2730000 -25.8970000  -7.8370000  12.9800000
 -26.7610000  -7.7200000  12.9360000 -31.3600000 -15.2110000   5.1420000
 -31.5090000 -14.2680000   5.0640000 -32.1530000 -15.5430000   5.5660000
 -31.4800000 -15.1330000   5.1860000 -27.4920000  -0.6010000  11.1200000
 -26.7030000  -0.0630000  11.0660000 -28.0920000  -0.2090000  10.4860000
 -27.4680000  -0.4820000  11.0320000 -27.7100000 -14.8670000  17.5610000
 -28.1750000 -14.2690000  18.1450000 -27.1150000 -14.3030000  17.0660000
 -27.6930000 -14.7190000  17.5720000 -32.1050000 -14.7220000   1.7370000
 -33.0220000 -14.9370000   1.9030000 -31.6300000 -15.1100000   2.4720000
 -32.1610000 -14.7990000   1.8520000 -35.4630000  -9.9760000  15.0080000
 -36.1420000  -9.3370000  15.2280000 -35.8720000 -10.8250000  15.1710000
 -35.6030000 -10.0030000  15.0570000 -24.5030000  -1.9710000   5.9720000
 -24.8700000  -1.3900000   6.6370000 -23.6110000  -1.6480000   5.8380000
 -24.4350000  -1.8550000   6.0400000 -26.3970000  -9.5340000  10.9570000
 -26.6650000  -8.8910000  11.6140000 -27.1960000  -9.7160000  10.4610000
 -26.5340000  -9.4750000  10.9770000 -26.4200000 -11.2000000  13.5190000
 -26.5840000 -10.8910000  12.6280000 -27.2820000 -11.4640000  13.8420000
 -26.5510000 -11.1940000  13.4470000 -26.1980000 -16.9790000  17.6570000
 -26.2010000 -17.2690000  16.7450000 -26.8700000 -16.2980000  17.6940000
 -26.2850000 -16.9290000  17.5450000 -34.5400000 -18.3160000   1.6650000
 -34.5390000 -17.5740000   2.2690000 -34.0360000 -18.0120000   0.9110000
 -34.4750000 -18.1820000   1.6460000 -33.6230000  -6.2800000   1.9490000
 -33.5370000  -6.3310000   0.9970000 -34.1770000  -5.5120000   2.0980000
 -33.6830000  -6.1880000   1.8460000 -26.4880000  -7.5370000  16.0550000
 -27.3060000  -7.6930000  15.5840000 -26.4400000  -6.5850000  16.1440000
 -26.5860000  -7.4350000  16.0060000 -22.1380000 -12.8410000  17.2860000
 -21.4250000 -13.4730000  17.3810000 -21.6980000 -12.0040000  17.1400000
 -21.9910000 -12.8150000  17.2790000 -20.6650000  -1.5640000  12.8550000
 -20.3840000  -1.6600000  13.7650000 -21.4460000  -1.0130000  12.9040000
 -20.7300000  -1.5060000  12.9780000 -33.0130000  -6.9020000   7.9140000
 -33.1010000  -6.1220000   8.4630000 -32.9420000  -7.6260000   8.5370000
 -33.0160000  -6.8950000   8.0640000 -32.9120000 -11.7610000  15.0980000
 -33.0030000 -11.8810000  14.1530000 -33.6350000 -11.1830000  15.3360000
 -33.0160000 -11.7020000  15.0070000 -31.8300000 -18.2450000   6.5500000
 -32.2350000 -18.5760000   7.3520000 -31.7220000 -19.0190000   5.9980000
 -31.8670000 -18.3860000   6.5820000 -31.2860000 -12.1990000   4.4360000
 -30.9130000 -12.2640000   3.5570000 -32.1910000 -12.4950000   4.3350000
 -31.3550000 -12.2460000   4.3110000 -31.5870000  -5.0420000   2.8700000
 -32.3200000  -5.5310000   2.4940000 -30.9280000  -5.0290000   2.1780000
 -31.5970000  -5.1030000   2.7340000 -29.1410000 -15.3020000   6.8210000
 -29.9930000 -15.4400000   6.4090000 -29.0910000 -14.3550000   6.9570000
 -29.2430000 -15.1980000   6.7860000 -34.2690000 -14.6340000  16.0120000
 -33.4780000 -14.6010000  15.4750000 -34.6300000 -13.7480000  15.9640000
 -34.2140000 -14.5170000  15.9370000 -28.0960000 -11.6310000   0.0600000
 -28.1150000 -10.9810000   0.7620000 -27.7410000 -12.4190000   0.4720000
 -28.0530000 -11.6480000   0.2020000 -23.1130000 -16.3810000  17.4810000
 -23.0520000 -16.7280000  16.5910000 -24.0530000 -16.3330000  17.6550000
 -23.2260000 -16.4190000  17.3890000 -32.7260000  -4.3330000  12.8390000
 -33.2960000  -3.6460000  13.1860000 -33.1780000  -5.1490000  13.0530000
 -32.8570000  -4.3490000  12.9110000 -26.1350000  -2.7520000   3.9300000
 -26.8200000  -2.8240000   4.5950000 -25.3360000  -2.5740000   4.4270000
 -26.1200000  -2.7390000   4.0790000 -28.4230000 -17.1280000   4.9120000
 -28.6480000 -16.3430000   5.4110000 -27.5240000 -16.9760000   4.6200000
 -28.3360000 -17.0080000   4.9390000 -22.9960000 -17.4080000   9.7820000
 -22.1250000 -17.8010000   9.8390000 -23.0950000 -17.1770000   8.8590000
 -22.8970000 -17.4290000   9.6710000 -26.0890000 -17.1410000  14.9160000
 -26.3480000 -17.9170000  14.4190000 -25.1320000 -17.1360000  14.8680000
 -26.0000000 -17.2400000  14.8460000 -22.9710000 -13.5430000   5.0300000
 -23.1920000 -13.7930000   5.9280000 -22.1550000 -14.0090000   4.8470000
 -22.8950000 -13.6350000   5.1220000 -29.1680000 -14.9930000  10.1970000
 -30.0200000 -15.4240000  10.1100000 -29.0700000 -14.8460000  11.1380000
 -29.2650000 -15.0290000  10.3060000 -30.5370000 -17.9720000  17.3480000
 -31.0900000 -17.6610000  18.0640000 -30.4760000 -17.2260000  16.7510000
 -30.6010000 -17.8370000  17.3630000 -31.7460000  -5.4590000   6.0330000
 -32.3820000  -5.9140000   6.5840000 -32.2350000  -4.7250000   5.6600000
 -31.8890000  -5.4230000   6.0560000 -25.8680000  -3.7880000  14.2380000
 -26.0710000  -4.0980000  15.1200000 -25.3550000  -4.4960000  13.8480000
 -25.8280000  -3.9190000  14.3010000 -20.2800000 -13.5190000   2.8660000
 -21.1030000 -14.0060000   2.8180000 -20.5320000 -12.6550000   3.1940000
 -20.4170000 -13.4710000   2.9020000 -23.2230000  -6.1860000  16.8850000
 -23.8630000  -6.7190000  17.3570000 -23.2610000  -6.5090000  15.9840000
 -23.3100000  -6.2960000  16.8300000 -29.4560000  -3.8180000  17.0200000
 -29.8430000  -4.1830000  16.2240000 -30.1050000  -3.1890000  17.3350000
 -29.5900000  -3.7850000  16.9590000 -35.1930000 -14.8380000   9.8110000
 -35.2870000 -15.3050000   8.9810000 -34.3700000 -15.1610000  10.1760000
 -35.1010000 -14.9390000   9.7520000 -24.9390000  -0.3910000   2.9520000
 -25.4550000  -1.0760000   3.3780000 -25.4220000   0.4160000   3.1260000
 -25.0670000  -0.3760000   3.0290000 -33.0300000 -15.5800000  11.0670000
 -32.5780000 -16.1590000  11.6810000 -32.4670000 -15.5650000  10.2940000
 -32.9000000 -15.6520000  11.0470000 -25.2030000   1.1520000  11.2530000
 -24.4270000   0.9960000  10.7140000 -25.2330000   2.1030000  11.3590000
 -25.1070000   1.2540000  11.1980000 -28.6330000  -2.4360000   5.4820000
 -28.8700000  -3.2490000   5.9260000 -29.4370000  -2.1580000   5.0450000
 -28.7650000  -2.5040000   5.4830000 -23.4390000  -3.0160000  16.7890000
 -23.1700000  -3.9200000  16.9490000 -24.3910000  -3.0290000  16.8900000
 -23.5260000  -3.1330000  16.8230000 -23.1300000  -7.3100000  14.4860000
 -23.7390000  -8.0460000  14.5420000 -23.5610000  -6.6860000  13.9030000
 -23.2620000  -7.3250000  14.4190000 -34.0320000  -6.7220000  12.9110000
 -34.4920000  -6.3780000  12.1460000 -33.9510000  -7.6600000  12.7390000
 -34.0800000  -6.7980000  12.7910000 -35.8360000  -9.0810000   5.0960000
 -34.8800000  -9.0490000   5.1230000 -36.1070000  -8.1640000   5.1340000
 -35.7470000  -8.9600000   5.1040000 -30.9950000 -13.6220000  18.0400000
 -31.7600000 -14.0190000  18.4570000 -31.2500000 -12.7110000  17.8910000
 -31.1260000 -13.5560000  18.0740000 -34.4760000 -15.7910000   3.0670000
 -34.1680000 -15.7260000   3.9710000 -35.3940000 -16.0490000   3.1460000
 -34.5550000 -15.8160000   3.1930000 -25.1670000 -11.5300000   5.4510000
 -24.5470000 -11.0860000   4.8720000 -25.9780000 -11.0260000   5.3660000
 -25.1910000 -11.4080000   5.3660000 -32.8750000  -3.3940000   4.6830000
 -33.5760000  -2.9960000   4.1660000 -32.4430000  -3.9970000   4.0770000
 -32.9090000  -3.4200000   4.5390000 -24.2740000  -5.4510000  12.5050000
 -24.4470000  -5.5280000  11.5670000 -23.4910000  -4.9040000  12.5600000
 -24.1960000  -5.3910000  12.3920000 -29.4560000  -9.0670000   6.8240000
 -28.9420000  -9.6670000   6.2840000 -29.7300000  -8.3770000   6.2200000
 -29.4260000  -9.0560000   6.6780000 -22.4280000  -0.5000000  16.1150000
 -22.0200000  -0.3280000  16.9630000 -22.6970000  -1.4170000  16.1600000
 -22.4100000  -0.5950000  16.2290000 -23.4150000 -15.8380000  14.3830000
 -23.7010000 -15.0120000  14.7740000 -23.6370000 -15.7540000  13.4560000
 -23.4800000 -15.7210000  14.3150000 -19.3990000 -14.5020000   6.8690000
 -18.8170000 -14.0170000   6.2830000 -19.9650000 -13.8320000   7.2520000
 -19.3970000 -14.3540000   6.8430000 -25.0200000  -7.7260000  18.1770000
 -25.8310000  -7.6880000  17.6700000 -24.6560000  -8.5890000  17.9820000
 -25.0780000  -7.8310000  18.0870000 -31.6800000 -15.6830000   8.7350000
 -31.8590000 -15.0930000   8.0030000 -31.1950000 -16.4100000   8.3450000
 -31.6410000 -15.7000000   8.5920000 -35.3940000  -5.5860000  11.1170000
 -35.1350000  -4.8930000  10.5090000 -36.2670000  -5.3270000  11.4160000
 -35.4720000  -5.4640000  11.0770000 -21.7070000  -7.9960000   8.0980000
 -20.8530000  -8.3370000   7.8280000 -21.6850000  -8.0250000   9.0540000
 -21.5950000  -8.0440000   8.1850000 -28.7760000 -11.0850000  16.0030000
 -29.5300000 -11.4150000  15.5140000 -28.9780000 -11.2830000  16.9170000
 -28.8980000 -11.1530000  16.0570000 -25.2260000 -11.7620000  18.0720000
 -26.0100000 -11.8010000  18.6200000 -24.5900000 -12.3130000  18.5260000
 -25.2450000 -11.8370000  18.2000000 -19.6300000 -17.9700000   7.6060000
 -20.2260000 -18.3200000   8.2680000 -18.9120000 -18.6020000   7.5710000
 -19.6140000 -18.0950000   7.6860000 -23.8320000 -13.2390000  15.2750000
 -23.1380000 -13.0450000  15.9070000 -24.4670000 -12.5330000  15.3930000
 -23.8250000 -13.1240000  15.3710000 -23.3660000  -0.9690000  12.7500000
 -23.8400000  -0.1360000  12.7430000 -23.8970000  -1.5500000  12.2060000
 -23.4950000  -0.9370000  12.6800000 -31.2550000 -16.2980000  -5.2660000
 -31.0260000 -16.3260000  -4.3370000 -31.8840000 -17.0100000  -5.3790000
 -31.3050000 -16.3930000  -5.1610000 -33.8550000  -2.1120000  -5.0060000
 -34.8100000  -2.1800000  -5.0380000 -33.6670000  -1.8050000  -4.1200000
 -33.9530000  -2.0810000  -4.8970000 -29.0900000  -4.6680000 -11.8430000
 -29.2640000  -4.5070000 -10.9150000 -29.8550000  -5.1540000 -12.1490000
 -29.2100000  -4.7100000 -11.7630000 -33.3390000 -18.0120000  -5.7600000
 -33.8990000 -17.5640000  -5.1260000 -33.4850000 -18.9430000  -5.5930000
 -33.4280000 -18.0740000  -5.6580000 -32.5190000  -9.7710000 -16.5120000
 -32.6730000  -9.3140000 -15.6850000 -31.8080000 -10.3810000 -16.3200000
 -32.4480000  -9.7910000 -16.3820000 -29.1250000 -14.5620000  -5.9070000
 -29.7280000 -15.2030000  -5.5320000 -28.3350000 -14.6310000  -5.3690000
 -29.1010000 -14.6520000  -5.7900000 -28.5860000 -18.1250000   0.3710000
 -27.6950000 -18.3540000   0.1070000 -29.1090000 -18.2460000  -0.4220000
 -28.5380000 -18.1690000   0.2360000 -22.3580000  -3.6120000 -18.3260000
 -23.2200000  -3.2840000 -18.5820000 -22.4550000  -4.5640000 -18.3270000
 -22.4810000  -3.6920000 -18.3590000 -35.6320000  -3.5150000 -11.5490000
 -35.5940000  -2.6220000 -11.8930000 -36.4320000  -3.5360000 -11.0230000
 -35.7300000  -3.4030000 -11.5260000 -30.9210000  -1.7250000 -14.8600000
 -31.7200000  -2.2520000 -14.8500000 -30.5780000  -1.8280000 -15.7470000
 -30.9800000  -1.8060000 -14.9720000 -26.7010000 -14.7360000  -4.6390000
 -26.5230000 -15.6180000  -4.3130000 -26.3830000 -14.1560000  -3.9470000
 -26.6370000 -14.7750000  -4.5080000 -27.0140000  -6.7400000 -12.3930000
 -27.4400000  -7.3470000 -12.9970000 -27.6760000  -6.0730000 -12.2150000
 -27.1530000  -6.7320000 -12.4470000 -21.2610000 -16.1080000 -13.1400000
 -21.1940000 -17.0550000 -13.2640000 -20.3920000 -15.8430000 -12.8390000
 -21.1410000 -16.1950000 -13.1170000 -20.1420000 -11.8170000 -11.2990000
 -20.9210000 -11.7070000 -10.7540000 -19.7980000 -10.9310000 -11.4080000
 -20.1980000 -11.6900000 -11.2430000 -29.0460000 -15.6890000 -17.1510000
 -29.3120000 -16.1520000 -16.3560000 -29.0300000 -16.3660000 -17.8270000
 -29.0780000 -15.8350000 -17.1350000 -28.8110000  -8.5010000  -3.8670000
 -28.9400000  -9.3660000  -3.4780000 -28.3680000  -8.6760000  -4.6980000
 -28.7710000  -8.6340000  -3.9240000 -25.9350000  -7.5490000 -16.8480000
 -25.1650000  -7.5280000 -16.2810000 -25.6160000  -7.9160000 -17.6720000
 -25.7960000  -7.5930000 -16.8810000 -20.2000000  -7.9120000 -15.1180000
 -20.5650000  -7.2710000 -14.5080000 -20.9650000  -8.3340000 -15.5100000
 -20.3440000  -7.8840000 -15.0900000 -22.2170000  -6.3120000 -18.1010000
 -22.1750000  -6.4460000 -19.0480000 -21.3320000  -6.0450000 -17.8580000
 -22.0980000  -6.2950000 -18.1910000 -21.8750000 -15.8820000 -16.0130000
 -21.7420000 -16.0260000 -15.0760000 -22.7420000 -15.4830000 -16.0730000
 -21.9680000 -15.8500000 -15.9000000 -25.2240000  -4.1450000 -11.5120000
 -25.0480000  -3.2950000 -11.9150000 -25.9840000  -4.4820000 -11.9860000
 -25.2980000  -4.0790000 -11.6240000 -25.4350000  -0.8200000 -10.2600000
 -24.8480000  -0.0830000 -10.4350000 -26.2160000  -0.6340000 -10.7790000
 -25.4590000  -0.7020000 -10.3490000 -33.1130000 -13.5650000 -11.7400000
 -33.5190000 -13.5660000 -12.6070000 -33.5980000 -12.9020000 -11.2490000
 -33.2260000 -13.4800000 -11.7880000 -34.9930000 -17.1690000  -3.7220000
 -34.7870000 -16.2710000  -3.4650000 -35.3500000 -17.5700000  -2.9290000
 -35.0120000 -17.1060000  -3.5880000 -33.6860000 -16.3780000 -13.0220000
 -34.4430000 -16.3910000 -12.4370000 -33.1530000 -17.1220000 -12.7410000
 -33.7140000 -16.4750000 -12.9110000 -26.6450000 -12.6800000  -2.7230000
 -26.0600000 -12.3670000  -2.0340000 -27.3710000 -12.0550000  -2.7230000
 -26.6630000 -12.5600000  -2.6350000 -29.0260000 -12.1790000 -13.1910000
 -29.8510000 -12.1970000 -13.6760000 -29.2760000 -12.3650000 -12.2860000
 -29.1630000 -12.2050000 -13.1370000 -31.9110000  -2.5140000  -8.5740000
 -32.1730000  -2.8890000  -7.7330000 -31.1800000  -3.0590000  -8.8630000
 -31.8510000  -2.6320000  -8.5040000 -33.6730000  -4.3210000  -9.8590000
 -34.3970000  -4.0180000 -10.4070000 -33.0800000  -3.5710000  -9.8110000
 -33.6900000  -4.1860000  -9.9230000 -34.2010000 -10.5570000 -18.5210000
 -34.8030000  -9.8200000 -18.6170000 -33.5710000 -10.2670000 -17.8600000
 -34.1970000 -10.4260000 -18.4490000 -29.7730000  -2.0950000 -17.2280000
 -29.3150000  -2.9170000 -17.0560000 -29.0750000  -1.4550000 -17.3670000
 -29.6250000  -2.1180000 -17.2240000 -31.0500000 -11.6040000  -8.2460000
 -30.1690000 -11.3120000  -8.0140000 -30.9650000 -11.9380000  -9.1390000
 -30.9260000 -11.6090000  -8.3310000 -35.0860000  -3.8460000   0.4250000
 -34.6030000  -3.2850000  -0.1820000 -35.5280000  -4.4820000  -0.1360000
 -35.0800000  -3.8550000   0.2760000 -31.4600000  -2.1100000  -0.7770000
 -30.8850000  -2.1970000  -0.0160000 -31.5010000  -1.1680000  -0.9390000
 -31.3910000  -2.0010000  -0.7010000 -26.7530000 -15.7850000 -10.0620000
 -27.7050000 -15.8480000  -9.9910000 -26.4250000 -16.5130000  -9.5340000
 -26.8340000 -15.8860000  -9.9850000 -21.6250000  -7.7770000  -7.9400000
 -21.1850000  -7.2700000  -7.2570000 -22.2960000  -8.2740000  -7.4740000
 -21.6530000  -7.7760000  -7.7930000 -20.4090000  -6.0090000  -5.7120000
 -21.1230000  -5.4040000  -5.9110000 -19.6930000  -5.4460000  -5.4150000
 -20.4090000  -5.8600000  -5.6990000 -31.1050000  -8.2560000  -0.8760000
 -31.2620000  -9.2000000  -0.9120000 -31.1930000  -7.9640000  -1.7830000
 -31.1370000  -8.3400000  -0.9970000 -26.8970000  -4.9480000 -16.7740000
 -26.5930000  -5.8410000 -16.6180000 -26.3700000  -4.4080000 -16.1850000
 -26.7910000  -4.9930000 -16.6790000 -24.2740000 -14.4600000 -16.1980000
 -24.1700000 -14.1160000 -15.3110000 -24.4050000 -13.6840000 -16.7430000
 -24.2780000 -14.3170000 -16.1540000 -21.6320000 -13.6120000  -8.8710000
 -20.7200000 -13.6010000  -8.5780000 -21.6320000 -14.1970000  -9.6290000
 -21.5150000 -13.6860000  -8.9300000 -23.7870000  -9.2750000  -7.0200000
 -24.6620000  -9.5320000  -7.3100000 -23.4350000 -10.0580000  -6.5960000
 -23.8550000  -9.4080000  -7.0030000 -34.0780000  -2.3590000  -1.8620000
 -34.3300000  -1.4550000  -1.6710000 -33.1730000  -2.4240000  -1.5590000
 -33.9940000  -2.2510000  -1.7990000 -32.0450000 -17.2860000 -18.2110000
 -31.7030000 -17.2770000 -17.3170000 -32.5300000 -16.4640000 -18.2890000
 -32.0640000 -17.1790000 -18.1070000 -29.4420000 -12.7750000 -10.5570000
 -29.3560000 -13.5590000 -10.0140000 -29.0030000 -12.0880000 -10.0570000
 -29.3750000 -12.7870000 -10.4240000 -20.7800000 -15.1570000  -1.2170000
 -21.6800000 -15.4850000  -1.2220000 -20.4550000 -15.3340000  -2.0990000
 -20.8550000 -15.2220000  -1.3300000 -20.7650000  -4.0350000 -15.2210000
 -20.6430000  -3.1600000 -15.5890000 -20.5550000  -4.6290000 -15.9420000
 -20.7220000  -3.9990000 -15.3610000 -22.3460000 -18.6360000 -16.3430000
 -22.2180000 -17.7210000 -16.5950000 -23.2950000 -18.7310000 -16.2580000
 -22.4510000 -18.5310000 -16.3640000 -26.3160000  -4.7510000  -2.0870000
 -25.7350000  -4.9150000  -1.3460000 -26.9100000  -4.0650000  -1.7790000
 -26.3180000  -4.6840000  -1.9530000 -30.0140000  -4.2870000  -9.3480000
 -30.4940000  -5.0950000  -9.1710000 -29.2850000  -4.3010000  -8.7290000
 -29.9820000  -4.3920000  -9.2460000 -19.1710000 -17.2980000 -18.3420000
 -19.3470000 -16.4570000 -18.7630000 -19.9800000 -17.7970000 -18.4560000
 -19.2970000 -17.2540000 -18.4100000 -16.6020000 -11.3700000 -10.9640000
 -16.5880000 -11.6830000 -10.0590000 -16.6520000 -10.4170000 -10.8870000
 -16.6060000 -11.2880000 -10.8380000 -27.2100000 -13.4340000 -17.0810000
 -27.8350000 -14.1580000 -17.0570000 -26.9910000 -13.2750000 -16.1630000
 -27.2610000 -13.5060000 -16.9610000 -30.4710000 -11.7860000  -4.9610000
 -31.3160000 -12.1060000  -4.6440000 -29.9980000 -12.5770000  -5.2200000
 -30.5200000 -11.9280000  -4.9530000 -33.5450000  -6.6000000  -0.6270000
 -32.7330000  -7.0880000  -0.7690000 -33.8140000  -6.3230000  -1.5030000
 -33.4760000  -6.6270000  -0.7580000 -34.6370000  -2.0280000 -15.5040000
 -35.2190000  -1.5300000 -14.9310000 -34.4080000  -1.4170000 -16.2040000
 -34.6820000  -1.8860000 -15.5200000 -20.7440000 -15.9190000  -3.7860000
 -21.6100000 -16.0830000  -4.1570000 -20.1610000 -16.5110000  -4.2640000
 -20.7800000 -16.0160000  -3.8950000 -21.0370000 -10.4690000 -17.0800000
 -21.4940000 -10.7100000 -16.2740000 -20.1110000 -10.6090000 -16.8810000
 -20.9770000 -10.5180000 -16.9510000 -31.2820000  -7.5600000  -3.5990000
 -30.4030000  -7.9330000  -3.6510000 -31.8200000  -8.1410000  -4.1360000
 -31.2380000  -7.6820000  -3.6740000 -22.2930000  -3.8490000  -5.2420000
 -22.6450000  -3.9520000  -4.3570000 -22.1450000  -2.9070000  -5.3320000
 -22.3200000  -3.7420000  -5.1400000 -20.1560000  -2.0820000  -3.3630000
 -19.9580000  -2.4770000  -2.5130000 -20.8280000  -1.4270000  -3.1720000
 -20.2170000  -2.0490000  -3.2300000 -22.9120000 -14.7520000 -11.4920000
 -22.2160000 -15.1380000 -12.0250000 -23.5220000 -15.4740000 -11.3370000
 -22.9010000 -14.8940000 -11.5410000 -24.8380000  -9.3030000  -3.9500000
 -25.3950000  -9.6970000  -4.6220000 -25.4150000  -8.6930000  -3.4900000
 -24.9830000  -9.2750000  -3.9770000 -20.9240000 -10.0420000  -0.7560000
 -21.7470000  -9.7020000  -1.1050000 -21.0690000 -10.0980000   0.1890000
 -21.0470000 -10.0060000  -0.6800000 -27.0110000 -13.3160000 -14.4170000
 -27.8350000 -13.0330000 -14.0210000 -26.3340000 -12.9300000 -13.8620000
 -27.0300000 -13.2310000 -14.2950000 -34.0000000  -9.7250000  -6.3240000
 -34.3760000  -9.8520000  -5.4540000 -34.5630000 -10.2360000  -6.9060000
 -34.1190000  -9.8060000  -6.2870000 -24.9920000  -8.2150000 -10.8690000
 -24.4470000  -7.7140000 -10.2620000 -25.6860000  -7.6080000 -11.1260000
 -25.0110000  -8.0740000 -10.8240000 -22.2880000 -10.9690000 -14.6760000
 -22.3320000 -10.3500000 -13.9460000 -22.6550000 -11.7800000 -14.3240000
 -22.3400000 -10.9930000 -14.5370000 -27.5380000 -10.1050000 -14.1970000
 -28.2100000 -10.7860000 -14.1670000 -27.4600000  -9.8880000 -15.1260000
 -27.6150000 -10.1640000 -14.3120000 -33.8510000 -15.2520000  -0.2340000
 -34.0050000 -14.9720000  -1.1360000 -34.0890000 -14.4920000   0.2970000
 -33.9020000 -15.1190000  -0.2810000 -26.3530000  -1.1260000  -5.0790000
 -26.9010000  -1.1950000  -5.8590000 -25.9880000  -2.0030000  -4.9630000
 -26.3750000  -1.2470000  -5.1640000 -31.9180000 -11.1310000  -1.1280000
 -32.0340000 -11.4150000  -2.0350000 -32.8100000 -11.0280000  -0.7950000
 -32.0480000 -11.1540000  -1.2020000 -32.8730000 -12.8040000  -6.2820000
 -33.4640000 -13.5430000  -6.4340000 -32.2620000 -12.8320000  -7.0170000
 -32.8700000 -12.9020000  -6.3960000 -31.4880000  -6.6120000  -8.2500000
 -31.5280000  -7.5670000  -8.2870000 -31.9430000  -6.3840000  -7.4400000
 -31.5510000  -6.7050000  -8.1510000 -23.5230000  -9.9590000  -1.5680000
 -24.2150000 -10.5990000  -1.4000000 -23.7310000  -9.6030000  -2.4310000
 -23.6380000  -9.9960000  -1.6570000 -35.5720000  -6.4120000 -12.2290000
 -34.8930000  -6.6920000 -11.6150000 -35.4750000  -5.4620000 -12.2780000
 -35.4730000  -6.3260000 -12.1560000 -30.1590000  -7.6760000 -17.1420000
 -30.5410000  -7.9850000 -17.9630000 -29.9190000  -6.7650000 -17.3170000
 -30.1760000  -7.5990000 -17.2690000 -31.3310000 -17.4060000 -15.4600000
 -31.0860000 -18.2810000 -15.1590000 -31.5460000 -16.9290000 -14.6590000
 -31.3280000 -17.4570000 -15.3190000 -26.0990000 -15.6570000 -12.9220000
 -26.3930000 -14.9420000 -13.4860000 -26.3700000 -15.3960000 -12.0420000
 -26.1710000 -15.5320000 -12.8820000 -22.1460000  -5.1050000 -11.2210000
 -23.0610000  -5.0950000 -11.5040000 -22.0240000  -5.9730000 -10.8360000
 -22.2480000  -5.2150000 -11.2080000 -34.4930000 -13.1410000 -17.4260000
 -35.4180000 -13.3840000 -17.3880000 -34.4970000 -12.2210000 -17.6910000
 -34.6110000 -13.0540000 -17.4550000 -32.5240000  -8.7880000 -14.1370000
 -31.7010000  -8.3020000 -14.1750000 -32.4730000  -9.2830000 -13.3200000
 -32.4120000  -8.7890000 -14.0380000 -35.8330000  -0.9130000 -10.0610000
 -36.3750000  -0.4900000  -9.3940000 -34.9350000  -0.7160000  -9.7990000
 -35.7890000  -0.8330000  -9.9420000 -30.2300000  -7.1510000 -14.1350000
 -30.7530000  -6.4480000 -13.7490000 -30.2170000  -6.9550000 -15.0710000
 -30.2940000  -7.0360000 -14.2050000 -23.1860000 -12.2840000 -17.9710000
 -22.7090000 -12.6370000 -18.7200000 -22.6850000 -11.5120000 -17.7080000
 -23.0610000 -12.2300000 -18.0330000 -34.2920000  -6.8480000  -3.1410000
 -34.3300000  -6.5310000  -4.0430000 -35.1650000  -7.2070000  -2.9760000
 -34.4090000  -6.8540000  -3.2350000 -30.3850000  -5.1080000  -4.5660000
 -31.1670000  -4.7020000  -4.9350000 -30.6720000  -5.9790000  -4.2930000
 -30.5210000  -5.1680000  -4.5780000 -21.3340000 -21.2050000  -8.5720000
 -21.1890000 -20.7990000  -7.7170000 -22.2800000 -21.1360000  -8.7110000
 -21.4360000 -21.1440000  -8.4800000 -31.3590000  -9.1510000  -6.0870000
 -31.0340000  -9.9540000  -5.6800000 -32.2270000  -9.3830000  -6.4130000
 -31.4280000  -9.2830000  -6.0770000 -35.7420000  -8.2170000  -0.1180000
 -34.9400000  -7.7070000  -0.2280000 -36.1920000  -7.7990000   0.6160000
 -35.6970000  -8.0980000  -0.0380000 -25.2460000 -11.0690000 -10.8580000
 -24.7480000 -11.2760000 -11.6490000 -25.0620000 -10.1440000 -10.6940000
 -25.1590000 -10.9770000 -10.9380000 -30.6210000 -12.3230000 -17.1170000
 -31.1030000 -13.1400000 -17.2480000 -30.1870000 -12.1640000 -17.9550000
 -30.6280000 -12.4070000 -17.2410000 -20.5580000  -0.2970000  -8.7900000
 -20.7050000  -1.2400000  -8.7090000 -19.9050000  -0.0990000  -8.1190000
 -20.4940000  -0.3930000  -8.6940000 -19.2250000  -4.0190000 -10.0040000
 -20.0700000  -3.6060000  -9.8200000 -19.3570000  -4.9410000  -9.7860000
 -19.3500000  -4.0840000  -9.9530000 -27.9250000 -10.4730000 -10.2350000
 -28.3320000  -9.7130000 -10.6510000 -27.0640000 -10.5380000 -10.6450000
 -27.8670000 -10.3840000 -10.3410000 -23.3880000  -9.2340000 -12.7530000
 -22.7150000  -8.8220000 -12.2130000 -24.1980000  -8.7880000 -12.5070000
 -23.4050000  -9.1240000 -12.6530000 -35.2350000  -8.7430000  -9.2500000
 -34.2780000  -8.7590000  -9.2690000 -35.4800000  -9.5570000  -8.8100000
 -35.1430000  -8.8490000  -9.1960000 -24.9310000 -14.7330000  -6.7110000
 -25.3850000 -14.2910000  -7.4290000 -25.4730000 -14.5580000  -5.9420000
 -25.0580000 -14.6540000  -6.7050000 -19.7660000  -9.8050000  -7.7670000
 -20.1550000 -10.2790000  -7.0310000 -20.3020000  -9.0160000  -7.8530000
 -19.8850000  -9.7650000  -7.6840000 -26.3920000 -13.2570000  -8.9010000
 -25.7660000 -12.8070000  -9.4680000 -26.5340000 -14.1040000  -9.3250000
 -26.3300000 -13.3080000  -9.0280000 -27.8570000  -5.3800000  -5.4020000
 -27.4650000  -4.5590000  -5.1060000 -28.7700000  -5.3250000  -5.1200000
 -27.9230000  -5.2680000  -5.3280000 -26.3680000 -16.5120000 -16.1450000
 -27.1280000 -16.2640000 -16.6730000 -25.8140000 -15.7320000 -16.1440000
 -26.3950000 -16.3800000 -16.2120000 -33.8330000 -13.2190000 -14.4280000
 -33.9230000 -13.4900000 -15.3410000 -34.7320000 -13.0620000 -14.1350000
 -33.9610000 -13.2330000 -14.5070000 -24.2460000 -17.3280000 -11.6320000
 -24.9090000 -16.9220000 -12.1920000 -23.5510000 -17.5910000 -12.2350000
 -24.2420000 -17.3090000 -11.7810000 -22.6340000 -12.0960000  -6.2530000
 -22.8980000 -12.7480000  -5.6030000 -22.4150000 -12.6090000  -7.0310000
 -22.6400000 -12.2450000  -6.2690000 -31.8870000 -10.3030000 -12.0280000
 -31.6990000 -11.0550000 -12.5900000 -31.0320000  -9.9120000 -11.8580000
 -31.7550000 -10.3490000 -12.0780000 -30.2310000 -15.4430000  -2.7880000
 -29.3100000 -15.3670000  -2.5440000 -30.6830000 -14.8260000  -2.2130000
 -30.1710000 -15.3550000  -2.6840000 -33.2410000 -18.4330000  -9.8690000
 -33.0700000 -17.5120000  -9.6700000 -32.6740000 -18.9170000  -9.2680000
 -33.1470000 -18.3770000  -9.7670000 -29.4370000  -5.0960000 -17.7450000
 -28.5930000  -5.1340000 -17.2940000 -29.2150000  -4.8910000 -18.6530000
 -29.3000000  -5.0750000 -17.8030000 -32.3870000  -9.3060000  -9.4760000
 -32.1300000  -9.7240000 -10.2980000 -32.3030000  -9.9980000  -8.8200000
 -32.3420000  -9.4480000  -9.4970000 -25.0750000  -4.8510000  -9.0170000
 -24.9760000  -4.6040000  -9.9370000 -25.9280000  -4.5010000  -8.7650000
 -25.1710000  -4.7750000  -9.1020000 -27.6850000  -0.4370000 -11.6780000
 -27.8690000  -1.2640000 -12.1240000 -27.9960000   0.2360000 -12.2830000
 -27.7480000  -0.4570000 -11.8130000 -21.5800000 -18.5670000  -0.0530000
 -22.1210000 -19.0820000   0.5450000 -22.0450000 -17.7340000  -0.1400000
 -21.7090000 -18.5260000   0.0130000 -26.0960000  -1.2020000 -18.5880000
 -25.9390000  -0.3630000 -19.0210000 -25.8350000  -1.0550000 -17.6790000
 -26.0420000  -1.0760000 -18.5270000 -23.9860000  -2.4250000  -8.4780000
 -24.5300000  -1.8250000  -8.9890000 -24.3780000  -3.2860000  -8.6240000
 -24.1050000  -2.4580000  -8.5620000 -20.2110000 -11.0160000  -4.8550000
 -21.1070000 -11.3410000  -4.9420000 -20.3110000 -10.1210000  -4.5300000
 -20.3390000 -10.9430000  -4.8240000 -29.8950000  -0.0570000  -9.5050000
 -29.9280000  -0.7440000  -8.8400000 -29.4180000  -0.4520000 -10.2350000
 -29.8390000  -0.1950000  -9.5130000 -28.0150000  -9.3290000 -16.8170000
 -27.2850000  -8.7090000 -16.8280000 -28.7970000  -8.7780000 -16.8480000
 -28.0220000  -9.1790000 -16.8230000 -28.3830000 -11.9480000  -7.7010000
 -28.8320000 -12.7020000  -7.3190000 -27.6610000 -12.3280000  -8.2010000
 -28.3480000 -12.0930000  -7.7160000 -26.8480000  -7.8240000  -5.9890000
 -27.1250000  -7.0000000  -5.5870000 -25.8970000  -7.8370000  -5.8800000
 -26.7610000  -7.7200000  -5.9240000 -31.3600000 -15.2110000 -13.7180000
 -31.5090000 -14.2680000 -13.7960000 -32.1530000 -15.5430000 -13.2940000
 -31.4800000 -15.1330000 -13.6740000 -27.4920000  -0.6010000  -7.7400000
 -26.7030000  -0.0630000  -7.7940000 -28.0920000  -0.2090000  -8.3740000
 -27.4680000  -0.4820000  -7.8280000 -27.7100000 -14.8670000  -1.2990000
 -28.1750000 -14.2690000  -0.7150000 -27.1150000 -14.3030000  -1.7940000
 -27.6930000 -14.7190000  -1.2880000 -32.1050000 -14.7220000 -17.1230000
 -33.0220000 -14.9370000 -16.9570000 -31.6300000 -15.1100000 -16.3880000
 -32.1610000 -14.7990000 -17.0080000 -35.4630000  -9.9760000  -3.8520000
 -36.1420000  -9.3370000  -3.6320000 -35.8720000 -10.8250000  -3.6890000
 -35.6030000 -10.0030000  -3.8030000 -24.5030000  -1.9710000 -12.8880000
 -24.8700000  -1.3900000 -12.2230000 -23.6110000  -1.6480000 -13.0220000
 -24.4350000  -1.8550000 -12.8200000 -26.3970000  -9.5340000  -7.9030000
 -26.6650000  -8.8910000  -7.2460000 -27.1960000  -9.7160000  -8.3990000
 -26.5340000  -9.4750000  -7.8830000 -26.4200000 -11.2000000  -5.3410000
 -26.5840000 -10.8910000  -6.2320000 -27.2820000 -11.4640000  -5.0180000
 -26.5510000 -11.1940000  -5.4130000 -26.1980000 -16.9790000  -1.2030000
 -26.2010000 -17.2690000  -2.1150000 -26.8700000 -16.2980000  -1.1660000
 -26.2850000 -16.9290000  -1.3150000 -34.5400000 -18.3160000 -17.1950000
 -34.5390000 -17.5740000 -16.5910000 -34.0360000 -18.0120000 -17.9490000
 -34.4750000 -18.1820000 -17.2140000 -33.6230000  -6.2800000 -16.9110000
 -33.5370000  -6.3310000 -17.8630000 -34.1770000  -5.5120000 -16.7620000
 -33.6830000  -6.1880000 -17.0140000 -26.4880000  -7.5370000  -2.8050000
 -27.3060000  -7.6930000  -3.2760000 -26.4400000  -6.5850000  -2.7160000
 -26.5860000  -7.4350000  -2.8540000 -22.1380000 -12.8410000  -1.5740000
 -21.4250000 -13.4730000  -1.4790000 -21.6980000 -12.0040000  -1.7200000
 -21.9910000 -12.8150000  -1.5810000 -33.0130000  -6.9020000 -10.9460000
 -33.1010000  -6.1220000 -10.3970000 -32.9420000  -7.6260000 -10.3230000
 -33.0160000  -6.8950000 -10.7960000 -32.9120000 -11.7610000  -3.7620000
 -33.0030000 -11.8810000  -4.7070000 -33.6350000 -11.1830000  -3.5240000
 -33.0160000 -11.7020000  -3.8530000 -31.8300000 -18.2450000 -12.3100000
 -32.2350000 -18.5760000 -11.5080000 -31.7220000 -19.0190000 -12.8620000
 -31.8670000 -18.3860000 -12.2780000 -20.7440000  -2.7860000 -12.5700000
 -20.6740000  -3.4150000 -11.8530000 -20.6780000  -3.3180000 -13.3630000
 -20.7270000  -2.9340000 -12.5800000 -31.2860000 -12.1990000 -14.4240000
 -30.9130000 -12.2640000 -15.3030000 -32.1910000 -12.4950000 -14.5250000
 -31.3550000 -12.2460000 -14.5490000 -31.5870000  -5.0420000 -15.9900000
 -32.3200000  -5.5310000 -16.3660000 -30.9280000  -5.0290000 -16.6820000
 -31.5970000  -5.1030000 -16.1260000 -29.1410000 -15.3020000 -12.0390000
 -29.9930000 -15.4400000 -12.4510000 -29.0910000 -14.3550000 -11.9030000
 -29.2430000 -15.1980000 -12.0740000 -34.2690000 -14.6340000  -2.8480000
 -33.4780000 -14.6010000  -3.3850000 -34.6300000 -13.7480000  -2.8960000
 -34.2140000 -14.5170000  -2.9230000 -28.0960000 -11.6310000 -18.8000000
 -28.1150000 -10.9810000 -18.0980000 -27.7410000 -12.4190000 -18.3880000
 -28.0530000 -11.6480000 -18.6580000 -23.1130000 -16.3810000  -1.3790000
 -23.0520000 -16.7280000  -2.2690000 -24.0530000 -16.3330000  -1.2050000
 -23.2260000 -16.4190000  -1.4710000 -32.7260000  -4.3330000  -6.0210000
 -33.2960000  -3.6460000  -5.6740000 -33.1780000  -5.1490000  -5.8070000
 -32.8570000  -4.3490000  -5.9490000 -26.1350000  -2.7520000 -14.9300000
 -26.8200000  -2.8240000 -14.2650000 -25.3360000  -2.5740000 -14.4330000
 -26.1200000  -2.7390000 -14.7810000 -28.4230000 -17.1280000 -13.9480000
 -28.6480000 -16.3430000 -13.4490000 -27.5240000 -16.9760000 -14.2400000
 -28.3360000 -17.0080000 -13.9210000 -22.9960000 -17.4080000  -9.0780000
 -22.1250000 -17.8010000  -9.0210000 -23.0950000 -17.1770000 -10.0010000
 -22.8970000 -17.4290000  -9.1890000 -26.0890000 -17.1410000  -3.9440000
 -26.3480000 -17.9170000  -4.4410000 -25.1320000 -17.1360000  -3.9920000
 -26.0000000 -17.2400000  -4.0140000 -22.9710000 -13.5430000 -13.8300000
 -23.1920000 -13.7930000 -12.9320000 -22.1550000 -14.0090000 -14.0130000
 -22.8950000 -13.6350000 -13.7380000 -25.1250000  -3.7800000 -18.6830000
 -25.5250000  -2.9120000 -18.6330000 -25.6010000  -4.3010000 -18.0360000
 -25.2370000  -3.7350000 -18.5940000 -29.1680000 -14.9930000  -8.6630000
 -30.0200000 -15.4240000  -8.7500000 -29.0700000 -14.8460000  -7.7220000
 -29.2650000 -15.0290000  -8.5540000 -30.5370000 -17.9720000  -1.5120000
 -31.0900000 -17.6610000  -0.7960000 -30.4760000 -17.2260000  -2.1090000
 -30.6010000 -17.8370000  -1.4970000 -31.7460000  -5.4590000 -12.8270000
 -32.3820000  -5.9140000 -12.2760000 -32.2350000  -4.7250000 -13.2000000
 -31.8890000  -5.4230000 -12.8040000 -25.8680000  -3.7880000  -4.6220000
 -26.0710000  -4.0980000  -3.7400000 -25.3550000  -4.4960000  -5.0120000
 -25.8280000  -3.9190000  -4.5590000 -20.2800000 -13.5190000 -15.9940000
 -21.1030000 -14.0060000 -16.0420000 -20.5320000 -12.6550000 -15.6660000
 -20.4170000 -13.4710000 -15.9580000 -23.2230000  -6.1860000  -1.9750000
 -23.8630000  -6.7190000  -1.5030000 -23.2610000  -6.5090000  -2.8760000
 -23.3100000  -6.2960000  -2.0300000 -29.4560000  -3.8180000  -1.8400000
 -29.8430000  -4.1830000  -2.6360000 -30.1050000  -3.1890000  -1.5250000
 -29.5900000  -3.7850000  -1.9010000 -35.1930000 -14.8380000  -9.0490000
 -35.2870000 -15.3050000  -9.8790000 -34.3700000 -15.1610000  -8.6840000
 -35.1010000 -14.9390000  -9.1080000 -20.5560000  -8.3490000  -4.1580000
 -21.4470000  -8.1330000  -3.8800000 -20.2800000  -7.5960000  -4.6800000
 -20.6350000  -8.2250000  -4.1890000 -21.4880000  -6.3270000 -13.7260000
 -21.4660000  -6.2110000 -12.7760000 -21.3150000  -5.4540000 -14.0770000
 -21.4630000  -6.2000000 -13.6490000 -22.1130000  -0.3870000 -13.4190000
 -22.3780000  -0.4220000 -14.3380000 -21.4910000  -1.1080000 -13.3200000
 -22.0670000  -0.4840000 -13.5240000 -24.9390000  -0.3910000 -15.9080000
 -25.4550000  -1.0760000 -15.4820000 -25.4220000   0.4160000 -15.7340000
 -25.0670000  -0.3760000 -15.8310000 -33.0300000 -15.5800000  -7.7930000
 -32.5780000 -16.1590000  -7.1790000 -32.4670000 -15.5650000  -8.5660000
 -32.9000000 -15.6520000  -7.8130000 -25.2030000   1.1520000  -7.6070000
 -24.4270000   0.9960000  -8.1460000 -25.2330000   2.1030000  -7.5010000
 -25.1070000   1.2540000  -7.6620000 -28.6330000  -2.4360000 -13.3780000
 -28.8700000  -3.2490000 -12.9340000 -29.4370000  -2.1580000 -13.8150000
 -28.7650000  -2.5040000 -13.3770000 -23.4390000  -3.0160000  -2.0710000
 -23.1700000  -3.9200000  -1.9110000 -24.3910000  -3.0290000  -1.9700000
 -23.5260000  -3.1330000  -2.0370000 -23.1300000  -7.3100000  -4.3740000
 -23.7390000  -8.0460000  -4.3180000 -23.5610000  -6.6860000  -4.9570000
 -23.2620000  -7.3250000  -4.4410000 -34.0320000  -6.7220000  -5.9490000
 -34.4920000  -6.3780000  -6.7140000 -33.9510000  -7.6600000  -6.1210000
 -34.0800000  -6.7980000  -6.0690000 -35.8360000  -9.0810000 -13.7640000
 -34.8800000  -9.0490000 -13.7370000 -36.1070000  -8.1640000 -13.7260000
 -35.7470000  -8.9600000 -13.7560000 -30.9950000 -13.6220000  -0.8210000
 -31.7600000 -14.0190000  -0.4030000 -31.2500000 -12.7110000  -0.9690000
 -31.1260000 -13.5560000  -0.7860000 -34.4760000 -15.7910000 -15.7930000
 -34.1680000 -15.7260000 -14.8890000 -35.3940000 -16.0490000 -15.7140000
 -34.5550000 -15.8160000 -15.6670000 -25.1670000 -11.5300000 -13.4090000
 -24.5470000 -11.0860000 -13.9880000 -25.9780000 -11.0260000 -13.4940000
 -25.1910000 -11.4080000 -13.4940000 -32.8750000  -3.3940000 -14.1770000
 -33.5760000  -2.9960000 -14.6940000 -32.4430000  -3.9970000 -14.7830000
 -32.9090000  -3.4200000 -14.3210000 -24.2740000  -5.4510000  -6.3550000
 -24.4470000  -5.5280000  -7.2930000 -23.4910000  -4.9040000  -6.3000000
 -24.1960000  -5.3910000  -6.4680000 -29.4560000  -9.0670000 -12.0360000
 -28.9420000  -9.6670000 -12.5760000 -29.7300000  -8.3770000 -12.6400000
 -29.4260000  -9.0560000 -12.1820000 -22.4280000  -0.5000000  -2.7450000
 -22.0200000  -0.3280000  -1.8970000 -22.6970000  -1.4170000  -2.7000000
 -22.4100000  -0.5950000  -2.6310000 -23.4150000 -15.8380000  -4.4770000
 -23.7010000 -15.0120000  -4.0860000 -23.6370000 -15.7540000  -5.4040000
 -23.4800000 -15.7210000  -4.5450000 -19.7620000  -1.2080000 -15.7470000
 -19.1740000  -1.3850000 -16.4820000 -20.3520000  -0.5280000 -16.0710000
 -19.7620000  -1.1440000 -15.8830000 -19.3990000 -14.5020000 -11.9910000
 -18.8170000 -14.0170000 -12.5770000 -19.9650000 -13.8320000 -11.6080000
 -19.3970000 -14.3540000 -12.0170000 -25.0200000  -7.7260000  -0.6830000
 -25.8310000  -7.6880000  -1.1900000 -24.6560000  -8.5890000  -0.8780000
 -25.0780000  -7.8310000  -0.7730000 -31.6800000 -15.6830000 -10.1250000
 -31.8590000 -15.0930000 -10.8570000 -31.1950000 -16.4100000 -10.5150000
 -31.6410000 -15.7000000 -10.2680000 -35.3940000  -5.5860000  -7.7430000
 -35.1350000  -4.8930000  -8.3510000 -36.2670000  -5.3270000  -7.4440000
 -35.4720000  -5.4640000  -7.7830000 -28.7760000 -11.0850000  -2.8570000
 -29.5300000 -11.4150000  -3.3460000 -28.9780000 -11.2830000  -1.9430000
 -28.8980000 -11.1530000  -2.8030000 -25.2260000 -11.7620000  -0.7880000
 -26.0100000 -11.8010000  -0.2400000 -24.5900000 -12.3130000  -0.3340000
 -25.2450000 -11.8370000  -0.6600000 -19.6300000 -17.9700000 -11.2540000
 -20.2260000 -18.3200000 -10.5920000 -18.9120000 -18.6020000 -11.2890000
 -19.6140000 -18.0950000 -11.1740000 -23.5600000  -7.3250000 -15.5470000
 -23.1650000  -6.9840000 -14.7450000 -23.0700000  -6.9060000 -16.2540000
 -23.4470000  -7.2280000 -15.5350000 -23.8320000 -13.2390000  -3.5850000
 -23.1380000 -13.0450000  -2.9530000 -24.4670000 -12.5330000  -3.4670000
 -23.8250000 -13.1240000  -3.4890000 -23.3660000  -0.9690000  -6.1100000
 -23.8400000  -0.1360000  -6.1170000 -23.8970000  -1.5500000  -6.6540000
 -23.4950000  -0.9370000  -6.1800000 -31.2550000 -16.2980000 -24.1260000
 -31.0260000 -16.3260000 -23.1970000 -31.8840000 -17.0100000 -24.2390000
 -31.3050000 -16.3930000 -24.0210000 -33.8550000  -2.1120000 -23.8660000
 -34.8100000  -2.1800000 -23.8980000 -33.6670000  -1.8050000 -22.9800000
 -33.9530000  -2.0810000 -23.7570000 -29.0900000  -4.6680000 -30.7030000
 -29.2640000  -4.5070000 -29.7750000 -29.8550000  -5.1540000 -31.0090000
 -29.2100000  -4.7100000 -30.6230000 -33.3390000 -18.0120000 -24.6200000
 -33.8990000 -17.5640000 -23.9860000 -33.4850000 -18.9430000 -24.4530000
 -33.4280000 -18.0740000 -24.5180000 -32.5190000  -9.7710000 -35.3720000
 -32.6730000  -9.3140000 -34.5450000 -31.8080000 -10.3810000 -35.1800000
 -32.4480000  -9.7910000 -35.2420000 -29.1250000 -14.5620000 -24.7670000
 -29.7280000 -15.2030000 -24.3920000 -28.3350000 -14.6310000 -24.2290000
 -29.1010000 -14.6520000 -24.6500000 -28.5860000 -18.1250000 -18.4890000
 -27.6950000 -18.3540000 -18.7530000 -29.1090000 -18.2460000 -19.2820000
 -28.5380000 -18.1690000 -18.6240000 -22.3580000  -3.6120000 -37.1860000
 -23.2200000  -3.2840000 -37.4420000 -22.4550000  -4.5640000 -37.1870000
 -22.4810000  -3.6920000 -37.2190000 -35.6320000  -3.5150000 -30.4090000
 -35.5940000  -2.6220000 -30.7530000 -36.4320000  -3.5360000 -29.8830000
 -35.7300000  -3.4030000 -30.3860000 -30.9210000  -1.7250000 -33.7200000
 -31.7200000  -2.2520000 -33.7100000 -30.5780000  -1.8280000 -34.6070000
 -30.9800000  -1.8060000 -33.8320000 -26.7010000 -14.7360000 -23.4990000
 -26.5230000 -15.6180000 -23.1730000 -26.3830000 -14.1560000 -22.8070000
 -26.6370000 -14.7750000 -23.3680000 -27.0140000  -6.7400000 -31.2530000
 -27.4400000  -7.3470000 -31.8570000 -27.6760000  -6.0730000 -31.0750000
 -27.1530000  -6.7320000 -31.3070000 -21.2610000 -16.1080000 -32.0000000
 -21.1940000 -17.0550000 -32.1240000 -20.3920000 -15.8430000 -31.6990000
 -21.1410000 -16.1950000 -31.9770000 -20.1420000 -11.8170000 -30.1590000
 -20.9210000 -11.7070000 -29.6140000 -19.7980000 -10.9310000 -30.2680000
 -20.1980000 -11.6900000 -30.1030000 -29.0460000 -15.6890000 -36.0110000
 -29.3120000 -16.1520000 -35.2160000 -29.0300000 -16.3660000 -36.6870000
 -29.0780000 -15.8350000 -35.9950000 -28.8110000  -8.5010000 -22.7270000
 -28.9400000  -9.3660000 -22.3380000 -28.3680000  -8.6760000 -23.5580000
 -28.7710000  -8.6340000 -22.7840000 -25.9350000  -7.5490000 -35.7080000
 -25.1650000  -7.5280000 -35.1410000 -25.6160000  -7.9160000 -36.5320000
 -25.7960000  -7.5930000 -35.7410000 -20.2000000  -7.9120000 -33.9780000
 -20.5650000  -7.2710000 -33.3680000 -20.9650000  -8.3340000 -34.3700000
 -20.3440000  -7.8840000 -33.9500000 -22.2170000  -6.3120000 -36.9610000
 -22.1750000  -6.4460000 -37.9080000 -21.3320000  -6.0450000 -36.7180000
 -22.0980000  -6.2950000 -37.0510000 -21.8750000 -15.8820000 -34.8730000
 -21.7420000 -16.0260000 -33.9360000 -22.7420000 -15.4830000 -34.9330000
 -21.9680000 -15.8500000 -34.7600000 -25.2240000  -4.1450000 -30.3720000
 -25.0480000  -3.2950000 -30.7750000 -25.9840000  -4.4820000 -30.8460000
 -25.2980000  -4.0790000 -30.4840000 -25.4350000  -0.8200000 -29.1200000
 -24.8480000  -0.0830000 -29.2950000 -26.2160000  -0.6340000 -29.6390000
 -25.4590000  -0.7020000 -29.2090000 -33.1130000 -13.5650000 -30.6000000
 -33.5190000 -13.5660000 -31.4670000 -33.5980000 -12.9020000 -30.1090000
 -33.2260000 -13.4800000 -30.6480000 -34.9930000 -17.1690000 -22.5820000
 -34.7870000 -16.2710000 -22.3250000 -35.3500000 -17.5700000 -21.7890000
 -35.0120000 -17.1060000 -22.4480000 -33.6860000 -16.3780000 -31.8820000
 -34.4430000 -16.3910000 -31.2970000 -33.1530000 -17.1220000 -31.6010000
 -33.7140000 -16.4750000 -31.7710000 -26.6450000 -12.6800000 -21.5830000
 -26.0600000 -12.3670000 -20.8940000 -27.3710000 -12.0550000 -21.5830000
 -26.6630000 -12.5600000 -21.4950000 -29.0260000 -12.1790000 -32.0510000
 -29.8510000 -12.1970000 -32.5360000 -29.2760000 -12.3650000 -31.1460000
 -29.1630000 -12.2050000 -31.9970000 -31.9110000  -2.5140000 -27.4340000
 -32.1730000  -2.8890000 -26.5930000 -31.1800000  -3.0590000 -27.7230000
 -31.8510000  -2.6320000 -27.3640000 -33.6730000  -4.3210000 -28.7190000
 -34.3970000  -4.0180000 -29.2670000 -33.0800000  -3.5710000 -28.6710000
 -33.6900000  -4.1860000 -28.7830000 -34.2010000 -10.5570000 -37.3810000
 -34.8030000  -9.8200000 -37.4770000 -33.5710000 -10.2670000 -36.7200000
 -34.1970000 -10.4260000 -37.3090000 -29.7730000  -2.0950000 -36.0880000
 -29.3150000  -2.9170000 -35.9160000 -29.0750000  -1.4550000 -36.2270000
 -29.6250000  -2.1180000 -36.0840000 -31.0500000 -11.6040000 -27.1060000
 -30.1690000 -11.3120000 -26.8740000 -30.9650000 -11.9380000 -27.9990000
 -30.9260000 -11.6090000 -27.1910000 -35.0860000  -3.8460000 -18.4350000
 -34.6030000  -3.2850000 -19.0420000 -35.5280000  -4.4820000 -18.9960000
 -35.0800000  -3.8550000 -18.5840000 -31.4600000  -2.1100000 -19.6370000
 -30.8850000  -2.1970000 -18.8760000 -31.5010000  -1.1680000 -19.7990000
 -31.3910000  -2.0010000 -19.5610000 -26.7530000 -15.7850000 -28.9220000
 -27.7050000 -15.8480000 -28.8510000 -26.4250000 -16.5130000 -28.3940000
 -26.8340000 -15.8860000 -28.8450000 -21.6250000  -7.7770000 -26.8000000
 -21.1850000  -7.2700000 -26.1170000 -22.2960000  -8.2740000 -26.3340000
 -21.6530000  -7.7760000 -26.6530000 -20.4090000  -6.0090000 -24.5720000
 -21.1230000  -5.4040000 -24.7710000 -19.6930000  -5.4460000 -24.2750000
 -20.4090000  -5.8600000 -24.5590000 -31.1050000  -8.2560000 -19.7360000
 -31.2620000  -9.2000000 -19.7720000 -31.1930000  -7.9640000 -20.6430000
 -31.1370000  -8.3400000 -19.8570000 -26.8970000  -4.9480000 -35.6340000
 -26.5930000  -5.8410000 -35.4780000 -26.3700000  -4.4080000 -35.0450000
 -26.7910000  -4.9930000 -35.5390000 -24.2740000 -14.4600000 -35.0580000
 -24.1700000 -14.1160000 -34.1710000 -24.4050000 -13.6840000 -35.6030000
 -24.2780000 -14.3170000 -35.0140000 -21.6320000 -13.6120000 -27.7310000
 -20.7200000 -13.6010000 -27.4380000 -21.6320000 -14.1970000 -28.4890000
 -21.5150000 -13.6860000 -27.7900000 -23.7870000  -9.2750000 -25.8800000
 -24.6620000  -9.5320000 -26.1700000 -23.4350000 -10.0580000 -25.4560000
 -23.8550000  -9.4080000 -25.8630000 -34.0780000  -2.3590000 -20.7220000
 -34.3300000  -1.4550000 -20.5310000 -33.1730000  -2.4240000 -20.4190000
 -33.9940000  -2.2510000 -20.6590000 -32.0450000 -17.2860000 -37.0710000
 -31.7030000 -17.2770000 -36.1770000 -32.5300000 -16.4640000 -37.1490000
 -32.0640000 -17.1790000 -36.9670000 -29.4420000 -12.7750000 -29.4170000
 -29.3560000 -13.5590000 -28.8740000 -29.0030000 -12.0880000 -28.9170000
 -29.3750000 -12.7870000 -29.2840000 -20.7800000 -15.1570000 -20.0770000
 -21.6800000 -15.4850000 -20.0820000 -20.4550000 -15.3340000 -20.9590000
 -20.8550000 -15.2220000 -20.1900000 -20.7650000  -4.0350000 -34.0810000
 -20.6430000  -3.1600000 -34.4490000 -20.5550000  -4.6290000 -34.8020000
 -20.7220000  -3.9990000 -34.2210000 -22.3460000 -18.6360000 -35.2030000
 -22.2180000 -17.7210000 -35.4550000 -23.2950000 -18.7310000 -35.1180000
 -22.4510000 -18.5310000 -35.2240000 -26.3160000  -4.7510000 -20.9470000
 -25.7350000  -4.9150000 -20.2060000 -26.9100000  -4.0650000 -20.6390000
 -26.3180000  -4.6840000 -20.8130000 -30.0140000  -4.2870000 -28.2080000
 -30.4940000  -5.0950000 -28.0310000 -29.2850000  -4.3010000 -27.5890000
 -29.9820000  -4.3920000 -28.1060000 -19.1710000 -17.2980000 -37.2020000
 -19.3470000 -16.4570000 -37.6230000 -19.9800000 -17.7970000 -37.3160000
 -19.2970000 -17.2540000 -37.2700000 -16.6020000 -11.3700000 -29.8240000
 -16.5880000 -11.6830000 -28.9190000 -16.6520000 -10.4170000 -29.7470000
 -16.6060000 -11.2880000 -29.6980000 -27.2100000 -13.4340000 -35.9410000
 -27.8350000 -14.1580000 -35.9170000 -26.9910000 -13.2750000 -35.0230000
 -27.2610000 -13.5060000 -35.8210000 -30.4710000 -11.7860000 -23.8210000
 -31.3160000 -12.1060000 -23.5040000 -29.9980000 -12.5770000 -24.0800000
 -30.5200000 -11.9280000 -23.8130000 -33.5450000  -6.6000000 -19.4870000
 -32.7330000  -7.0880000 -19.6290000 -33.8140000  -6.3230000 -20.3630000
 -33.4760000  -6.6270000 -19.6180000 -34.6370000  -2.0280000 -34.3640000
 -35.2190000  -1.5300000 -33.7910000 -34.4080000  -1.4170000 -35.0640000
 -34.6820000  -1.8860000 -34.3800000 -20.7440000 -15.9190000 -22.6460000
 -21.6100000 -16.0830000 -23.0170000 -20.1610000 -16.5110000 -23.1240000
 -20.7800000 -16.0160000 -22.7550000 -21.0370000 -10.4690000 -35.9400000
 -21.4940000 -10.7100000 -35.1340000 -20.1110000 -10.6090000 -35.7410000
 -20.9770000 -10.5180000 -35.8110000 -31.2820000  -7.5600000 -22.4590000
 -30.4030000  -7.9330000 -22.5110000 -31.8200000  -8.1410000 -22.9960000
 -31.2380000  -7.6820000 -22.5340000 -22.2930000  -3.8490000 -24.1020000
 -22.6450000  -3.9520000 -23.2170000 -22.1450000  -2.9070000 -24.1920000
 -22.3200000  -3.7420000 -24.0000000 -20.1560000  -2.0820000 -22.2230000
 -19.9580000  -2.4770000 -21.3730000 -20.8280000  -1.4270000 -22.0320000
 -20.2170000  -2.0490000 -22.0900000 -22.9120000 -14.7520000 -30.3520000
 -22.2160000 -15.1380000 -30.8850000 -23.5220000 -15.4740000 -30.1970000
 -22.9010000 -14.8940000 -30.4010000 -24.8380000  -9.3030000 -22.8100000
 -25.3950000  -9.6970000 -23.4820000 -25.4150000  -8.6930000 -22.3500000
 -24.9830000  -9.2750000 -22.8370000 -20.9240000 -10.0420000 -19.6160000
 -21.7470000  -9.7020000 -19.9650000 -21.0690000 -10.0980000 -18.6710000
 -21.0470000 -10.0060000 -19.5400000 -27.0110000 -13.3160000 -33.2770000
 -27.8350000 -13.0330000 -32.8810000 -26.3340000 -12.9300000 -32.7220000
 -27.0300000 -13.2310000 -33.1550000 -34.0000000  -9.7250000 -25.1840000
 -34.3760000  -9.8520000 -24.3140000 -34.5630000 -10.2360000 -25.7660000
 -34.1190000  -9.8060000 -25.1470000 -24.9920000  -8.2150000 -29.7290000
 -24.4470000  -7.7140000 -29.1220000 -25.6860000  -7.6080000 -29.9860000
 -25.0110000  -8.0740000 -29.6840000 -22.2880000 -10.9690000 -33.5360000
 -22.3320000 -10.3500000 -32.8060000 -22.6550000 -11.7800000 -33.1840000
 -22.3400000 -10.9930000 -33.3970000 -27.5380000 -10.1050000 -33.0570000
 -28.2100000 -10.7860000 -33.0270000 -27.4600000  -9.8880000 -33.9860000
 -27.6150000 -10.1640000 -33.1720000 -33.8510000 -15.2520000 -19.0940000
 -34.0050000 -14.9720000 -19.9960000 -34.0890000 -14.4920000 -18.5630000
 -33.9020000 -15.1190000 -19.1410000 -26.3530000  -1.1260000 -23.9390000
 -26.9010000  -1.1950000 -24.7190000 -25.9880000  -2.0030000 -23.8230000
 -26.3750000  -1.2470000 -24.0240000 -31.9180000 -11.1310000 -19.9880000
 -32.0340000 -11.4150000 -20.8950000 -32.8100000 -11.0280000 -19.6550000
 -32.0480000 -11.1540000 -20.0620000 -32.8730000 -12.8040000 -25.1420000
 -33.4640000 -13.5430000 -25.2940000 -32.2620000 -12.8320000 -25.8770000
 -32.8700000 -12.9020000 -25.2560000 -31.4880000  -6.6120000 -27.1100000
 -31.5280000  -7.5670000 -27.1470000 -31.9430000  -6.3840000 -26.3000000
 -31.5510000  -6.7050000 -27.0110000 -23.5230000  -9.9590000 -20.4280000
 -24.2150000 -10.5990000 -20.2600000 -23.7310000  -9.6030000 -21.2910000
 -23.6380000  -9.9960000 -20.5170000 -35.5720000  -6.4120000 -31.0890000
 -34.8930000  -6.6920000 -30.4750000 -35.4750000  -5.4620000 -31.1380000
 -35.4730000  -6.3260000 -31.0160000 -30.1590000  -7.6760000 -36.0020000
 -30.5410000  -7.9850000 -36.8230000 -29.9190000  -6.7650000 -36.1770000
 -30.1760000  -7.5990000 -36.1290000 -31.3310000 -17.4060000 -34.3200000
 -31.0860000 -18.2810000 -34.0190000 -31.5460000 -16.9290000 -33.5190000
 -31.3280000 -17.4570000 -34.1790000 -26.0990000 -15.6570000 -31.7820000
 -26.3930000 -14.9420000 -32.3460000 -26.3700000 -15.3960000 -30.9020000
 -26.1710000 -15.5320000 -31.7420000 -27.6450000  -4.0010000 -26.7000000
 -27.7100000  -4.5210000 -25.8980000 -27.1010000  -3.2520000 -26.4570000
 -27.5850000  -3.9720000 -26.5660000 -22.1460000  -5.1050000 -30.0810000
 -23.0610000  -5.0950000 -30.3640000 -22.0240000  -5.9730000 -29.6960000
 -22.2480000  -5.2150000 -30.0680000 -34.4930000 -13.1410000 -36.2860000
 -35.4180000 -13.3840000 -36.2480000 -34.4970000 -12.2210000 -36.5510000
 -34.6110000 -13.0540000 -36.3150000 -32.5240000  -8.7880000 -32.9970000
 -31.7010000  -8.3020000 -33.0350000 -32.4730000  -9.2830000 -32.1800000
 -32.4120000  -8.7890000 -32.8980000 -35.8330000  -0.9130000 -28.9210000
 -36.3750000  -0.4900000 -28.2540000 -34.9350000  -0.7160000 -28.6590000
 -35.7890000  -0.8330000 -28.8020000 -30.2300000  -7.1510000 -32.9950000
 -30.7530000  -6.4480000 -32.6090000 -30.2170000  -6.9550000 -33.9310000
 -30.2940000  -7.0360000 -33.0650000 -23.1860000 -12.2840000 -36.8310000
 -22.7090000 -12.6370000 -37.5800000 -22.6850000 -11.5120000 -36.5680000
 -23.0610000 -12.2300000 -36.8930000 -34.2920000  -6.8480000 -22.0010000
 -34.3300000  -6.5310000 -22.9030000 -35.1650000  -7.2070000 -21.8360000
 -34.4090000  -6.8540000 -22.0950000 -30.3850000  -5.1080000 -23.4260000
 -31.1670000  -4.7020000 -23.7950000 -30.6720000  -5.9790000 -23.1530000
 -30.5210000  -5.1680000 -23.4380000 -21.3340000 -21.2050000 -27.4320000
 -21.1890000 -20.7990000 -26.5770000 -22.2800000 -21.1360000 -27.5710000
 -21.4360000 -21.1440000 -27.3400000 -35.7420000  -8.2170000 -18.9780000
 -34.9400000  -7.7070000 -19.0880000 -36.1920000  -7.7990000 -18.2440000
 -35.6970000  -8.0980000 -18.8980000 -25.2460000 -11.0690000 -29.7180000
 -24.7480000 -11.2760000 -30.5090000 -25.0620000 -10.1440000 -29.5540000
 -25.1590000 -10.9770000 -29.7980000 -30.6210000 -12.3230000 -35.9770000
 -31.1030000 -13.1400000 -36.1080000 -30.1870000 -12.1640000 -36.8150000
 -30.6280000 -12.4070000 -36.1010000 -20.5580000  -0.2970000 -27.6500000
 -20.7050000  -1.2400000 -27.5690000 -19.9050000  -0.0990000 -26.9790000
 -20.4940000  -0.3930000 -27.5540000 -19.2250000  -4.0190000 -28.8640000
 -20.0700000  -3.6060000 -28.6800000 -19.3570000  -4.9410000 -28.6460000
 -19.3500000  -4.0840000 -28.8130000 -27.9250000 -10.4730000 -29.0950000
 -28.3320000  -9.7130000 -29.5110000 -27.0640000 -10.5380000 -29.5050000
 -27.8670000 -10.3840000 -29.2010000 -23.3880000  -9.2340000 -31.6130000
 -22.7150000  -8.8220000 -31.0730000 -24.1980000  -8.7880000 -31.3670000
 -23.4050000  -9.1240000 -31.5130000 -35.2350000  -8.7430000 -28.1100000
 -34.2780000  -8.7590000 -28.1290000 -35.4800000  -9.5570000 -27.6700000
 -35.1430000  -8.8490000 -28.0560000 -24.9310000 -14.7330000 -25.5710000
 -25.3850000 -14.2910000 -26.2890000 -25.4730000 -14.5580000 -24.8020000
 -25.0580000 -14.6540000 -25.5650000 -19.7660000  -9.8050000 -26.6270000
 -20.1550000 -10.2790000 -25.8910000 -20.3020000  -9.0160000 -26.7130000
 -19.8850000  -9.7650000 -26.5440000 -26.3920000 -13.2570000 -27.7610000
 -25.7660000 -12.8070000 -28.3280000 -26.5340000 -14.1040000 -28.1850000
 -26.3300000 -13.3080000 -27.8880000 -27.8570000  -5.3800000 -24.2620000
 -27.4650000  -4.5590000 -23.9660000 -28.7700000  -5.3250000 -23.9800000
 -27.9230000  -5.2680000 -24.1880000 -26.3680000 -16.5120000 -35.0050000
 -27.1280000 -16.2640000 -35.5330000 -25.8140000 -15.7320000 -35.0040000
 -26.3950000 -16.3800000 -35.0720000 -33.8330000 -13.2190000 -33.2880000
 -33.9230000 -13.4900000 -34.2010000 -34.7320000 -13.0620000 -32.9950000
 -33.9610000 -13.2330000 -33.3670000 -24.2460000 -17.3280000 -30.4920000
 -24.9090000 -16.9220000 -31.0520000 -23.5510000 -17.5910000 -31.0950000
 -24.2420000 -17.3090000 -30.6410000 -22.6340000 -12.0960000 -25.1130000
 -22.8980000 -12.7480000 -24.4630000 -22.4150000 -12.6090000 -25.8910000
 -22.6400000 -12.2450000 -25.1290000 -31.8870000 -10.3030000 -30.8880000
 -31.6990000 -11.0550000 -31.4500000 -31.0320000  -9.9120000 -30.7180000
 -31.7550000 -10.3490000 -30.9380000 -30.2310000 -15.4430000 -21.6480000
 -29.3100000 -15.3670000 -21.4040000 -30.6830000 -14.8260000 -21.0730000
 -30.1710000 -15.3550000 -21.5440000 -33.2410000 -18.4330000 -28.7290000
 -33.0700000 -17.5120000 -28.5300000 -32.6740000 -18.9170000 -28.1280000
 -33.1470000 -18.3770000 -28.6270000 -29.4370000  -5.0960000 -36.6050000
 -28.5930000  -5.1340000 -36.1540000 -29.2150000  -4.8910000 -37.5130000
 -29.3000000  -5.0750000 -36.6630000 -32.3870000  -9.3060000 -28.3360000
 -32.1300000  -9.7240000 -29.1580000 -32.3030000  -9.9980000 -27.6800000
 -32.3420000  -9.4480000 -28.3570000 -25.0750000  -4.8510000 -27.8770000
 -24.9760000  -4.6040000 -28.7970000 -25.9280000  -4.5010000 -27.6250000
 -25.1710000  -4.7750000 -27.9620000 -27.6850000  -0.4370000 -30.5380000
 -27.8690000  -1.2640000 -30.9840000 -27.9960000   0.2360000 -31.1430000
 -27.7480000  -0.4570000 -30.6730000 -21.5800000 -18.5670000 -18.9130000
 -22.1210000 -19.0820000 -18.3150000 -22.0450000 -17.7340000 -19.0000000
 -21.7090000 -18.5260000 -18.8470000 -26.0960000  -1.2020000 -37.4480000
 -25.9390000  -0.3630000 -37.8810000 -25.8350000  -1.0550000 -36.5390000
 -26.0420000  -1.0760000 -37.3870000 -23.9860000  -2.4250000 -27.3380000
 -24.5300000  -1.8250000 -27.8490000 -24.3780000  -3.2860000 -27.4840000
 -24.1050000  -2.4580000 -27.4220000 -20.2110000 -11.0160000 -23.7150000
 -21.1070000 -11.3410000 -23.8020000 -20.3110000 -10.1210000 -23.3900000
 -20.3390000 -10.9430000 -23.6840000 -29.8950000  -0.0570000 -28.3650000
 -29.9280000  -0.7440000 -27.7000000 -29.4180000  -0.4520000 -29.0950000
 -29.8390000  -0.1950000 -28.3730000 -28.0150000  -9.3290000 -35.6770000
 -27.2850000  -8.7090000 -35.6880000 -28.7970000  -8.7780000 -35.7080000
 -28.0220000  -9.1790000 -35.6830000 -28.3830000 -11.9480000 -26.5610000
 -28.8320000 -12.7020000 -26.1790000 -27.6610000 -12.3280000 -27.0610000
 -28.3480000 -12.0930000 -26.5760000 -26.8480000  -7.8240000 -24.8490000
 -27.1250000  -7.0000000 -24.4470000 -25.8970000  -7.8370000 -24.7400000
 -26.7610000  -7.7200000 -24.7840000 -31.3600000 -15.2110000 -32.5780000
 -31.5090000 -14.2680000 -32.6560000 -32.1530000 -15.5430000 -32.1540000
 -31.4800000 -15.1330000 -32.5340000 -27.4920000  -0.6010000 -26.6000000
 -26.7030000  -0.0630000 -26.6540000 -28.0920000  -0.2090000 -27.2340000
 -27.4680000  -0.4820000 -26.6880000 -27.7100000 -14.8670000 -20.1590000
 -28.1750000 -14.2690000 -19.5750000 -27.1150000 -14.3030000 -20.6540000
 -27.6930000 -14.7190000 -20.1480000 -32.1050000 -14.7220000 -35.9830000
 -33.0220000 -14.9370000 -35.8170000 -31.6300000 -15.1100000 -35.2480000
 -32.1610000 -14.7990000 -35.8680000 -35.4630000  -9.9760000 -22.7120000
 -36.1420000  -9.3370000 -22.4920000 -35.8720000 -10.8250000 -22.5490000
 -35.6030000 -10.0030000 -22.6630000 -24.5030000  -1.9710000 -31.7480000
 -24.8700000  -1.3900000 -31.0830000 -23.6110000  -1.6480000 -31.8820000
 -24.4350000  -1.8550000 -31.6800000 -26.3970000  -9.5340000 -26.7630000
 -26.6650000  -8.8910000 -26.1060000 -27.1960000  -9.7160000 -27.2590000
 -26.5340000  -9.4750000 -26.7430000 -26.4200000 -11.2000000 -24.2010000
 -26.5840000 -10.8910000 -25.0920000 -27.2820000 -11.4640000 -23.8780000
 -26.5510000 -11.1940000 -24.2730000 -26.1980000 -16.9790000 -20.0630000
 -26.2010000 -17.2690000 -20.9750000 -26.8700000 -16.2980000 -20.0260000
 -26.2850000 -16.9290000 -20.1750000 -34.5400000 -18.3160000 -36.0550000
 -34.5390000 -17.5740000 -35.4510000 -34.0360000 -18.0120000 -36.8090000
 -34.4750000 -18.1820000 -36.0740000 -33.6230000  -6.2800000 -35.7710000
 -33.5370000  -6.3310000 -36.7230000 -34.1770000  -5.5120000 -35.6220000
 -33.6830000  -6.1880000 -35.8740000 -26.4880000  -7.5370000 -21.6650000
 -27.3060000  -7.6930000 -22.1360000 -26.4400000  -6.5850000 -21.5760000
 -26.5860000  -7.4350000 -21.7140000 -22.1380000 -12.8410000 -20.4340000
 -21.4250000 -13.4730000 -20.3390000 -21.6980000 -12.0040000 -20.5800000
 -21.9910000 -12.8150000 -20.4410000 -20.6650000  -1.5640000 -24.8650000
 -20.3840000  -1.6600000 -23.9550000 -21.4460000  -1.0130000 -24.8160000
 -20.7300000  -1.5060000 -24.7420000 -33.0130000  -6.9020000 -29.8060000
 -33.1010000  -6.1220000 -29.2570000 -32.9420000  -7.6260000 -29.1830000
 -33.0160000  -6.8950000 -29.6560000 -32.9120000 -11.7610000 -22.6220000
 -33.0030000 -11.8810000 -23.5670000 -33.6350000 -11.1830000 -22.3840000
 -33.0160000 -11.7020000 -22.7130000 -31.8300000 -18.2450000 -31.1700000
 -32.2350000 -18.5760000 -30.3680000 -31.7220000 -19.0190000 -31.7220000
 -31.8670000 -18.3860000 -31.1380000 -20.7440000  -2.7860000 -31.4300000
 -20.6740000  -3.4150000 -30.7130000 -20.6780000  -3.3180000 -32.2230000
 -20.7270000  -2.9340000 -31.4400000 -31.2860000 -12.1990000 -33.2840000
 -30.9130000 -12.2640000 -34.1630000 -32.1910000 -12.4950000 -33.3850000
 -31.3550000 -12.2460000 -33.4090000 -31.5870000  -5.0420000 -34.8500000
 -32.3200000  -5.5310000 -35.2260000 -30.9280000  -5.0290000 -35.5420000
 -31.5970000  -5.1030000 -34.9860000 -29.1410000 -15.3020000 -30.8990000
 -29.9930000 -15.4400000 -31.3110000 -29.0910000 -14.3550000 -30.7630000
 -29.2430000 -15.1980000 -30.9340000 -34.2690000 -14.6340000 -21.7080000
 -33.4780000 -14.6010000 -22.2450000 -34.6300000 -13.7480000 -21.7560000
 -34.2140000 -14.5170000 -21.7830000 -28.0960000 -11.6310000 -37.6600000
 -28.1150000 -10.9810000 -36.9580000 -27.7410000 -12.4190000 -37.2480000
 -28.0530000 -11.6480000 -37.5180000 -23.1130000 -16.3810000 -20.2390000
 -23.0520000 -16.7280000 -21.1290000 -24.0530000 -16.3330000 -20.0650000
 -23.2260000 -16.4190000 -20.3310000 -32.7260000  -4.3330000 -24.8810000
 -33.2960000  -3.6460000 -24.5340000 -33.1780000  -5.1490000 -24.6670000
 -32.8570000  -4.3490000 -24.8090000 -26.1350000  -2.7520000 -33.7900000
 -26.8200000  -2.8240000 -33.1250000 -25.3360000  -2.5740000 -33.2930000
 -26.1200000  -2.7390000 -33.6410000 -28.4230000 -17.1280000 -32.8080000
 -28.6480000 -16.3430000 -32.3090000 -27.5240000 -16.9760000 -33.1000000
 -28.3360000 -17.0080000 -32.7810000 -22.9960000 -17.4080000 -27.9380000
 -22.1250000 -17.8010000 -27.8810000 -23.0950000 -17.1770000 -28.8610000
 -22.8970000 -17.4290000 -28.0490000 -26.0890000 -17.1410000 -22.8040000
 -26.3480000 -17.9170000 -23.3010000 -25.1320000 -17.1360000 -22.8520000
 -26.0000000 -17.2400000 -22.8740000 -22.9710000 -13.5430000 -32.6900000
 -23.1920000 -13.7930000 -31.7920000 -22.1550000 -14.0090000 -32.8730000
 -22.8950000 -13.6350000 -32.5980000 -25.1250000  -3.7800000 -37.5430000
 -25.5250000  -2.9120000 -37.4930000 -25.6010000  -4.3010000 -36.8960000
 -25.2370000  -3.7350000 -37.4540000 -29.1680000 -14.9930000 -27.5230000
 -30.0200000 -15.4240000 -27.6100000 -29.0700000 -14.8460000 -26.5820000
 -29.2650000 -15.0290000 -27.4140000 -30.5370000 -17.9720000 -20.3720000
 -31.0900000 -17.6610000 -19.6560000 -30.4760000 -17.2260000 -20.9690000
 -30.6010000 -17.8370000 -20.3570000 -31.7460000  -5.4590000 -31.6870000
 -32.3820000  -5.9140000 -31.1360000 -32.2350000  -4.7250000 -32.0600000
 -31.8890000  -5.4230000 -31.6640000 -25.8680000  -3.7880000 -23.4820000
 -26.0710000  -4.0980000 -22.6000000 -25.3550000  -4.4960000 -23.8720000
 -25.8280000  -3.9190000 -23.4190000 -20.2800000 -13.5190000 -34.8540000
 -21.1030000 -14.0060000 -34.9020000 -20.5320000 -12.6550000 -34.5260000
 -20.4170000 -13.4710000 -34.8180000 -23.2230000  -6.1860000 -20.8350000
 -23.8630000  -6.7190000 -20.3630000 -23.2610000  -6.5090000 -21.7360000
 -23.3100000  -6.2960000 -20.8900000 -29.4560000  -3.8180000 -20.7000000
 -29.8430000  -4.1830000 -21.4960000 -30.1050000  -3.1890000 -20.3850000
 -29.5900000  -3.7850000 -20.7610000 -35.1930000 -14.8380000 -27.9090000
 -35.2870000 -15.3050000 -28.7390000 -34.3700000 -15.1610000 -27.5440000
 -35.1010000 -14.9390000 -27.9680000 -20.5560000  -8.3490000 -23.0180000
 -21.4470000  -8.1330000 -22.7400000 -20.2800000  -7.5960000 -23.5400000
 -20.6350000  -8.2250000 -23.0490000 -21.4880000  -6.3270000 -32.5860000
 -21.4660000  -6.2110000 -31.6360000 -21.3150000  -5.4540000 -32.9370000
 -21.4630000  -6.2000000 -32.5090000 -22.1130000  -0.3870000 -32.2790000
 -22.3780000  -0.4220000 -33.1980000 -21.4910000  -1.1080000 -32.1800000
 -22.0670000  -0.4840000 -32.3840000 -24.9390000  -0.3910000 -34.7680000
 -25.4550000  -1.0760000 -34.3420000 -25.4220000   0.4160000 -34.5940000
 -25.0670000  -0.3760000 -34.6910000 -33.0300000 -15.5800000 -26.6530000
 -32.5780000 -16.1590000 -26.0390000 -32.4670000 -15.5650000 -27.4260000
 -32.9000000 -15.6520000 -26.6730000 -25.2030000   1.1520000 -26.4670000
 -24.4270000   0.9960000 -27.0060000 -25.2330000   2.1030000 -26.3610000
 -25.1070000   1.2540000 -26.5220000 -28.6330000  -2.4360000 -32.2380000
 -28.8700000  -3.2490000 -31.7940000 -29.4370000  -2.1580000 -32.6750000
 -28.7650000  -2.5040000 -32.2370000 -23.4390000  -3.0160000 -20.9310000
 -23.1700000  -3.9200000 -20.7710000 -24.3910000  -3.0290000 -20.8300000
 -23.5260000  -3.1330000 -20.8970000 -23.1300000  -7.3100000 -23.2340000
 -23.7390000  -8.0460000 -23.1780000 -23.5610000  -6.6860000 -23.8170000
 -23.2620000  -7.3250000 -23.3010000 -34.0320000  -6.7220000 -24.8090000
 -34.4920000  -6.3780000 -25.5740000 -33.9510000  -7.6600000 -24.9810000
 -34.0800000  -6.7980000 -24.9290000 -35.8360000  -9.0810000 -32.6240000
 -34.8800000  -9.0490000 -32.5970000 -36.1070000  -8.1640000 -32.5860000
 -35.7470000  -8.9600000 -32.6160000 -30.9950000 -13.6220000 -19.6810000
 -31.7600000 -14.0190000 -19.2630000 -31.2500000 -12.7110000 -19.8290000
 -31.1260000 -13.5560000 -19.6460000 -34.4760000 -15.7910000 -34.6530000
 -34.1680000 -15.7260000 -33.7490000 -35.3940000 -16.0490000 -34.5740000
 -34.5550000 -15.8160000 -34.5270000 -25.1670000 -11.5300000 -32.2690000
 -24.5470000 -11.0860000 -32.8480000 -25.9780000 -11.0260000 -32.3540000
 -25.1910000 -11.4080000 -32.3540000 -32.8750000  -3.3940000 -33.0370000
 -33.5760000  -2.9960000 -33.5540000 -32.4430000  -3.9970000 -33.6430000
 -32.9090000  -3.4200000 -33.1810000 -24.2740000  -5.4510000 -25.2150000
 -24.4470000  -5.5280000 -26.1530000 -23.4910000  -4.9040000 -25.1600000
 -24.1960000  -5.3910000 -25.3280000 -29.4560000  -9.0670000 -30.8960000
 -28.9420000  -9.6670000 -31.4360000 -29.7300000  -8.3770000 -31.5000000
 -29.4260000  -9.0560000 -31.0420000 -22.4280000  -0.5000000 -21.6050000
 -22.0200000  -0.3280000 -20.7570000 -22.6970000  -1.4170000 -21.5600000
 -22.4100000  -0.5950000 -21.4910000 -23.4150000 -15.8380000 -23.3370000
 -23.7010000 -15.0120000 -22.9460000 -23.6370000 -15.7540000 -24.2640000
 -23.4800000 -15.7210000 -23.4050000 -19.7620000  -1.2080000 -34.6070000
 -19.1740000  -1.3850000 -35.3420000 -20.3520000  -0.5280000 -34.9310000
 -19.7620000  -1.1440000 -34.7430000 -19.9210000  -2.8530000 -19.6120000
 -20.6940000  -2.8220000 -19.0480000 -19.3040000  -2.2430000 -19.2060000
 -19.9410000  -2.7710000 -19.4870000 -19.3990000 -14.5020000 -30.8510000
 -18.8170000 -14.0170000 -31.4370000 -19.9650000 -13.8320000 -30.4680000
 -19.3970000 -14.3540000 -30.8770000 -25.0200000  -7.7260000 -19.5430000
 -25.8310000  -7.6880000 -20.0500000 -24.6560000  -8.5890000 -19.7380000
 -25.0780000  -7.8310000 -19.6330000 -31.6800000 -15.6830000 -28.9850000
 -31.8590000 -15.0930000 -29.7170000 -31.1950000 -16.4100000 -29.3750000
 -31.6410000 -15.7000000 -29.1280000 -35.3940000  -5.5860000 -26.6030000
 -35.1350000  -4.8930000 -27.2110000 -36.2670000  -5.3270000 -26.3040000
 -35.4720000  -5.4640000 -26.6430000 -21.7070000  -7.9960000 -29.6220000
 -20.8530000  -8.3370000 -29.8920000 -21.6850000  -8.0250000 -28.6660000
 -21.5950000  -8.0440000 -29.5350000 -28.7760000 -11.0850000 -21.7170000
 -29.5300000 -11.4150000 -22.2060000 -28.9780000 -11.2830000 -20.8030000
 -28.8980000 -11.1530000 -21.6630000 -25.2260000 -11.7620000 -19.6480000
 -26.0100000 -11.8010000 -19.1000000 -24.5900000 -12.3130000 -19.1940000
 -25.2450000 -11.8370000 -19.5200000 -19.6300000 -17.9700000 -30.1140000
 -20.2260000 -18.3200000 -29.4520000 -18.9120000 -18.6020000 -30.1490000
 -19.6140000 -18.0950000 -30.0340000 -23.5600000  -7.3250000 -34.4070000
 -23.1650000  -6.9840000 -33.6050000 -23.0700000  -6.9060000 -35.1140000
 -23.4470000  -7.2280000 -34.3950000 -23.8320000 -13.2390000 -22.4450000
 -23.1380000 -13.0450000 -21.8130000 -24.4670000 -12.5330000 -22.3270000
 -23.8250000 -13.1240000 -22.3490000 -23.3660000  -0.9690000 -24.9700000
 -23.8400000  -0.1360000 -24.9770000 -23.8970000  -1.5500000 -25.5140000
 -23.4950000  -0.9370000 -25.0400000 -31.2550000 -16.2980000 -42.9860000
 -31.0260000 -16.3260000 -42.0570000 -31.8840000 -17.0100000 -43.0990000
 -31.3050000 -16.3930000 -42.8810000 -33.8550000  -2.1120000 -42.7260000
 -34.8100000  -2.1800000 -42.7580000 -33.6670000  -1.8050000 -41.8400000
 -33.9530000  -2.0810000 -42.6170000 -33.3390000 -18.0120000 -43.4800000
 -33.8990000 -17.5640000 -42.8460000 -33.4850000 -18.9430000 -43.3130000
 -33.4280000 -18.0740000 -43.3780000 -29.1250000 -14.5620000 -43.6270000
 -29.7280000 -15.2030000 -43.2520000 -28.3350000 -14.6310000 -43.0890000
 -29.1010000 -14.6520000 -43.5100000 -28.5860000 -18.1250000 -37.3490000
 -27.6950000 -18.3540000 -37.6130000 -29.1090000 -18.2460000 -38.1420000
 -28.5380000 -18.1690000 -37.4840000 -26.7010000 -14.7360000 -42.3580000
 -26.5230000 -15.6180000 -42.0330000 -26.3830000 -14.1560000 -41.6670000
 -26.6370000 -14.7750000 -42.2280000 -28.8110000  -8.5010000 -41.5870000
 -28.9400000  -9.3660000 -41.1980000 -28.3680000  -8.6760000 -42.4180000
 -28.7710000  -8.6340000 -41.6440000 -25.4350000  -0.8200000 -47.9800000
 -24.8480000  -0.0830000 -48.1550000 -26.2160000  -0.6340000 -48.4990000
 -25.4590000  -0.7020000 -48.0690000 -34.9930000 -17.1690000 -41.4420000
 -34.7870000 -16.2710000 -41.1850000 -35.3500000 -17.5700000 -40.6490000
 -35.0120000 -17.1060000 -41.3080000 -26.6450000 -12.6800000 -40.4430000
 -26.0600000 -12.3670000 -39.7540000 -27.3710000 -12.0550000 -40.4430000
 -26.6630000 -12.5600000 -40.3550000 -31.9110000  -2.5140000 -46.2940000
 -32.1730000  -2.8890000 -45.4530000 -31.1800000  -3.0590000 -46.5830000
 -31.8510000  -2.6320000 -46.2240000 -33.6730000  -4.3210000 -47.5790000
 -34.3970000  -4.0180000 -48.1270000 -33.0800000  -3.5710000 -47.5310000
 -33.6900000  -4.1860000 -47.6430000 -31.0500000 -11.6040000 -45.9660000
 -30.1690000 -11.3120000 -45.7330000 -30.9650000 -11.9380000 -46.8580000
 -30.9260000 -11.6090000 -46.0510000 -35.0860000  -3.8460000 -37.2950000
 -34.6030000  -3.2850000 -37.9020000 -35.5280000  -4.4820000 -37.8560000
 -35.0800000  -3.8550000 -37.4440000 -31.4600000  -2.1100000 -38.4970000
 -30.8850000  -2.1970000 -37.7360000 -31.5010000  -1.1680000 -38.6590000
 -31.3910000  -2.0010000 -38.4210000 -26.7530000 -15.7850000 -47.7820000
 -27.7050000 -15.8480000 -47.7110000 -26.4250000 -16.5130000 -47.2540000
 -26.8340000 -15.8860000 -47.7050000 -21.6250000  -7.7770000 -45.6600000
 -21.1850000  -7.2700000 -44.9770000 -22.2960000  -8.2740000 -45.1940000
 -21.6530000  -7.7760000 -45.5130000 -20.4090000  -6.0090000 -43.4320000
 -21.1230000  -5.4040000 -43.6310000 -19.6930000  -5.4460000 -43.1350000
 -20.4090000  -5.8600000 -43.4190000 -31.1050000  -8.2560000 -38.5960000
 -31.2620000  -9.2000000 -38.6320000 -31.1930000  -7.9640000 -39.5030000
 -31.1370000  -8.3400000 -38.7170000 -21.6320000 -13.6120000 -46.5910000
 -20.7200000 -13.6010000 -46.2980000 -21.6320000 -14.1970000 -47.3490000
 -21.5150000 -13.6860000 -46.6500000 -23.7870000  -9.2750000 -44.7400000
 -24.6620000  -9.5320000 -45.0300000 -23.4350000 -10.0580000 -44.3150000
 -23.8550000  -9.4080000 -44.7230000 -34.0780000  -2.3590000 -39.5820000
 -34.3300000  -1.4550000 -39.3910000 -33.1730000  -2.4240000 -39.2790000
 -33.9940000  -2.2510000 -39.5190000 -29.4420000 -12.7750000 -48.2770000
 -29.3560000 -13.5590000 -47.7330000 -29.0030000 -12.0880000 -47.7770000
 -29.3750000 -12.7870000 -48.1440000 -20.7800000 -15.1570000 -38.9370000
 -21.6800000 -15.4850000 -38.9420000 -20.4550000 -15.3340000 -39.8190000
 -20.8550000 -15.2220000 -39.0500000 -26.3160000  -4.7510000 -39.8070000
 -25.7350000  -4.9150000 -39.0660000 -26.9100000  -4.0650000 -39.4990000
 -26.3180000  -4.6840000 -39.6730000 -30.0140000  -4.2870000 -47.0680000
 -30.4940000  -5.0950000 -46.8910000 -29.2850000  -4.3010000 -46.4490000
 -29.9820000  -4.3920000 -46.9660000 -16.6020000 -11.3700000 -48.6840000
 -16.5880000 -11.6830000 -47.7790000 -16.6520000 -10.4170000 -48.6070000
 -16.6060000 -11.2880000 -48.5580000 -30.4710000 -11.7860000 -42.6810000
 -31.3160000 -12.1060000 -42.3640000 -29.9980000 -12.5770000 -42.9400000
 -30.5200000 -11.9280000 -42.6730000 -33.5450000  -6.6000000 -38.3470000
 -32.7330000  -7.0880000 -38.4890000 -33.8140000  -6.3230000 -39.2230000
 -33.4760000  -6.6270000 -38.4780000 -20.7440000 -15.9190000 -41.5060000
 -21.6100000 -16.0830000 -41.8770000 -20.1610000 -16.5110000 -41.9830000
 -20.7800000 -16.0160000 -41.6150000 -31.2820000  -7.5600000 -41.3190000
 -30.4030000  -7.9330000 -41.3710000 -31.8200000  -8.1410000 -41.8560000
 -31.2380000  -7.6820000 -41.3940000 -22.2930000  -3.8490000 -42.9620000
 -22.6450000  -3.9520000 -42.0770000 -22.1450000  -2.9070000 -43.0520000
 -22.3200000  -3.7420000 -42.8600000 -20.1560000  -2.0820000 -41.0830000
 -19.9580000  -2.4770000 -40.2330000 -20.8280000  -1.4270000 -40.8920000
 -20.2170000  -2.0490000 -40.9500000 -24.8380000  -9.3030000 -41.6700000
 -25.3950000  -9.6970000 -42.3420000 -25.4150000  -8.6930000 -41.2100000
 -24.9830000  -9.2750000 -41.6970000 -20.9240000 -10.0420000 -38.4760000
 -21.7470000  -9.7020000 -38.8250000 -21.0690000 -10.0980000 -37.5310000
 -21.0470000 -10.0060000 -38.4000000 -34.0000000  -9.7250000 -44.0440000
 -34.3760000  -9.8520000 -43.1740000 -34.5630000 -10.2360000 -44.6260000
 -34.1190000  -9.8060000 -44.0070000 -24.9920000  -8.2150000 -48.5890000
 -24.4470000  -7.7140000 -47.9820000 -25.6860000  -7.6080000 -48.8460000
 -25.0110000  -8.0740000 -48.5440000 -33.8510000 -15.2520000 -37.9530000
 -34.0050000 -14.9720000 -38.8560000 -34.0890000 -14.4920000 -37.4230000
 -33.9020000 -15.1190000 -38.0010000 -26.3530000  -1.1260000 -42.7990000
 -26.9010000  -1.1950000 -43.5790000 -25.9880000  -2.0030000 -42.6830000
 -26.3750000  -1.2470000 -42.8840000 -31.9180000 -11.1310000 -38.8480000
 -32.0340000 -11.4150000 -39.7550000 -32.8100000 -11.0280000 -38.5150000
 -32.0480000 -11.1540000 -38.9220000 -32.8730000 -12.8040000 -44.0020000
 -33.4640000 -13.5430000 -44.1540000 -32.2620000 -12.8320000 -44.7370000
 -32.8700000 -12.9020000 -44.1160000 -31.4880000  -6.6120000 -45.9700000
 -31.5280000  -7.5670000 -46.0070000 -31.9430000  -6.3840000 -45.1600000
 -31.5510000  -6.7050000 -45.8710000 -23.5230000  -9.9590000 -39.2880000
 -24.2150000 -10.5990000 -39.1200000 -23.7310000  -9.6030000 -40.1510000
 -23.6380000  -9.9960000 -39.3770000 -27.6450000  -4.0010000 -45.5600000
 -27.7100000  -4.5210000 -44.7580000 -27.1010000  -3.2520000 -45.3170000
 -27.5850000  -3.9720000 -45.4260000 -35.8330000  -0.9130000 -47.7810000
 -36.3750000  -0.4900000 -47.1140000 -34.9350000  -0.7160000 -47.5190000
 -35.7890000  -0.8330000 -47.6620000 -34.2920000  -6.8480000 -40.8610000
 -34.3300000  -6.5310000 -41.7630000 -35.1650000  -7.2070000 -40.6960000
 -34.4090000  -6.8540000 -40.9550000 -30.3850000  -5.1080000 -42.2860000
 -31.1670000  -4.7020000 -42.6550000 -30.6720000  -5.9790000 -42.0130000
 -30.5210000  -5.1680000 -42.2980000 -21.3340000 -21.2050000 -46.2920000
 -21.1890000 -20.7990000 -45.4370000 -22.2800000 -21.1360000 -46.4310000
 -21.4360000 -21.1440000 -46.2000000 -31.3590000  -9.1510000 -43.8070000
 -31.0340000  -9.9540000 -43.4000000 -32.2270000  -9.3830000 -44.1330000
 -31.4280000  -9.2830000 -43.7970000 -35.7420000  -8.2170000 -37.8380000
 -34.9400000  -7.7070000 -37.9470000 -36.1920000  -7.7990000 -37.1040000
 -35.6970000  -8.0980000 -37.7580000 -20.5580000  -0.2970000 -46.5100000
 -20.7050000  -1.2400000 -46.4280000 -19.9050000  -0.0990000 -45.8390000
 -20.4940000  -0.3930000 -46.4140000 -19.2250000  -4.0190000 -47.7240000
 -20.0700000  -3.6060000 -47.5400000 -19.3570000  -4.9410000 -47.5060000
 -19.3500000  -4.0840000 -47.6730000 -27.9250000 -10.4730000 -47.9550000
 -28.3320000  -9.7130000 -48.3710000 -27.0640000 -10.5380000 -48.3650000
 -27.8670000 -10.3840000 -48.0610000 -35.2350000  -8.7430000 -46.9700000
 -34.2780000  -8.7590000 -46.9890000 -35.4800000  -9.5570000 -46.5300000
 -35.1430000  -8.8490000 -46.9160000 -24.9310000 -14.7330000 -44.4310000
 -25.3850000 -14.2910000 -45.1490000 -25.4730000 -14.5580000 -43.6620000
 -25.0580000 -14.6540000 -44.4250000 -19.7660000  -9.8050000 -45.4870000
 -20.1550000 -10.2790000 -44.7510000 -20.3020000  -9.0160000 -45.5730000
 -19.8850000  -9.7650000 -45.4040000 -26.3920000 -13.2570000 -46.6210000
 -25.7660000 -12.8070000 -47.1880000 -26.5340000 -14.1040000 -47.0450000
 -26.3300000 -13.3080000 -46.7480000 -27.8570000  -5.3800000 -43.1220000
 -27.4650000  -4.5590000 -42.8260000 -28.7700000  -5.3250000 -42.8400000
 -27.9230000  -5.2680000 -43.0480000 -22.6340000 -12.0960000 -43.9730000
 -22.8980000 -12.7480000 -43.3230000 -22.4150000 -12.6090000 -44.7510000
 -22.6400000 -12.2450000 -43.9890000 -30.2310000 -15.4430000 -40.5080000
 -29.3100000 -15.3670000 -40.2640000 -30.6830000 -14.8260000 -39.9330000
 -30.1710000 -15.3550000 -40.4040000 -33.2410000 -18.4330000 -47.5890000
 -33.0700000 -17.5120000 -47.3900000 -32.6740000 -18.9170000 -46.9880000
 -33.1470000 -18.3770000 -47.4870000 -32.3870000  -9.3060000 -47.1960000
 -32.1300000  -9.7240000 -48.0180000 -32.3030000  -9.9980000 -46.5400000
 -32.3420000  -9.4480000 -47.2170000 -25.0750000  -4.8510000 -46.7370000
 -24.9760000  -4.6040000 -47.6570000 -25.9280000  -4.5010000 -46.4850000
 -25.1710000  -4.7750000 -46.8220000 -21.5800000 -18.5670000 -37.7730000
 -22.1210000 -19.0820000 -37.1750000 -22.0450000 -17.7340000 -37.8600000
 -21.7090000 -18.5260000 -37.7070000 -23.9860000  -2.4250000 -46.1980000
 -24.5300000  -1.8250000 -46.7090000 -24.3780000  -3.2860000 -46.3440000
 -24.1050000  -2.4580000 -46.2820000 -20.2110000 -11.0160000 -42.5750000
 -21.1070000 -11.3410000 -42.6620000 -20.3110000 -10.1210000 -42.2500000
 -20.3390000 -10.9430000 -42.5440000 -29.8950000  -0.0570000 -47.2250000
 -29.9280000  -0.7440000 -46.5600000 -29.4180000  -0.4520000 -47.9550000
 -29.8390000  -0.1950000 -47.2330000 -28.3830000 -11.9480000 -45.4210000
 -28.8320000 -12.7020000 -45.0390000 -27.6610000 -12.3280000 -45.9210000
 -28.3480000 -12.0930000 -45.4360000 -26.8480000  -7.8240000 -43.7090000
 -27.1250000  -7.0000000 -43.3070000 -25.8970000  -7.8370000 -43.6000000
 -26.7610000  -7.7200000 -43.6440000 -27.4920000  -0.6010000 -45.4600000
 -26.7030000  -0.0630000 -45.5140000 -28.0920000  -0.2090000 -46.0940000
 -27.4680000  -0.4820000 -45.5480000 -27.7100000 -14.8670000 -39.0190000
 -28.1750000 -14.2690000 -38.4350000 -27.1150000 -14.3030000 -39.5140000
 -27.6930000 -14.7190000 -39.0080000 -35.4630000  -9.9760000 -41.5720000
 -36.1420000  -9.3370000 -41.3520000 -35.8720000 -10.8250000 -41.4090000
 -35.6030000 -10.0030000 -41.5230000 -26.3970000  -9.5340000 -45.6230000
 -26.6650000  -8.8910000 -44.9650000 -27.1960000  -9.7160000 -46.1190000
 -26.5340000  -9.4750000 -45.6030000 -26.4200000 -11.2000000 -43.0610000
 -26.5840000 -10.8910000 -43.9520000 -27.2820000 -11.4640000 -42.7380000
 -26.5510000 -11.1940000 -43.1330000 -26.1980000 -16.9790000 -38.9230000
 -26.2010000 -17.2690000 -39.8350000 -26.8700000 -16.2980000 -38.8860000
 -26.2850000 -16.9290000 -39.0350000 -26.4880000  -7.5370000 -40.5250000
 -27.3060000  -7.6930000 -40.9960000 -26.4400000  -6.5850000 -40.4360000
 -26.5860000  -7.4350000 -40.5740000 -22.1380000 -12.8410000 -39.2940000
 -21.4250000 -13.4730000 -39.1990000 -21.6980000 -12.0040000 -39.4400000
 -21.9910000 -12.8150000 -39.3010000 -20.6650000  -1.5640000 -43.7250000
 -20.3840000  -1.6600000 -42.8150000 -21.4460000  -1.0130000 -43.6760000
 -20.7300000  -1.5060000 -43.6020000 -33.0130000  -6.9020000 -48.6660000
 -33.1010000  -6.1220000 -48.1170000 -32.9420000  -7.6260000 -48.0430000
 -33.0160000  -6.8950000 -48.5160000 -32.9120000 -11.7610000 -41.4820000
 -33.0030000 -11.8810000 -42.4270000 -33.6350000 -11.1830000 -41.2440000
 -33.0160000 -11.7020000 -41.5730000 -34.2690000 -14.6340000 -40.5680000
 -33.4780000 -14.6010000 -41.1050000 -34.6300000 -13.7480000 -40.6160000
 -34.2140000 -14.5170000 -40.6430000 -23.1130000 -16.3810000 -39.0990000
 -23.0520000 -16.7280000 -39.9890000 -24.0530000 -16.3330000 -38.9250000
 -23.2260000 -16.4190000 -39.1910000 -32.7260000  -4.3330000 -43.7410000
 -33.2960000  -3.6460000 -43.3940000 -33.1780000  -5.1490000 -43.5270000
 -32.8570000  -4.3490000 -43.6690000 -22.9960000 -17.4080000 -46.7980000
 -22.1250000 -17.8010000 -46.7410000 -23.0950000 -17.1770000 -47.7210000
 -22.8970000 -17.4290000 -46.9090000 -26.0890000 -17.1410000 -41.6640000
 -26.3480000 -17.9170000 -42.1610000 -25.1320000 -17.1360000 -41.7120000
 -26.0000000 -17.2400000 -41.7330000 -29.1680000 -14.9930000 -46.3830000
 -30.0200000 -15.4240000 -46.4700000 -29.0700000 -14.8460000 -45.4420000
 -29.2650000 -15.0290000 -46.2740000 -30.5370000 -17.9720000 -39.2320000
 -31.0900000 -17.6610000 -38.5160000 -30.4760000 -17.2260000 -39.8290000
 -30.6010000 -17.8370000 -39.2170000 -25.8680000  -3.7880000 -42.3420000
 -26.0710000  -4.0980000 -41.4600000 -25.3550000  -4.4960000 -42.7320000
 -25.8280000  -3.9190000 -42.2790000 -23.2230000  -6.1860000 -39.6950000
 -23.8630000  -6.7190000 -39.2230000 -23.2610000  -6.5090000 -40.5960000
 -23.3100000  -6.2960000 -39.7500000 -29.4560000  -3.8180000 -39.5600000
 -29.8430000  -4.1830000 -40.3560000 -30.1050000  -3.1890000 -39.2450000
 -29.5900000  -3.7850000 -39.6210000 -35.1930000 -14.8380000 -46.7690000
 -35.2870000 -15.3050000 -47.5990000 -34.3700000 -15.1610000 -46.4040000
 -35.1010000 -14.9390000 -46.8280000 -20.5560000  -8.3490000 -41.8780000
 -21.4470000  -8.1330000 -41.6000000 -20.2800000  -7.5960000 -42.4000000
 -20.6350000  -8.2250000 -41.9090000 -33.0300000 -15.5800000 -45.5130000
 -32.5780000 -16.1590000 -44.8990000 -32.4670000 -15.5650000 -46.2860000
 -32.9000000 -15.6520000 -45.5330000 -25.2030000   1.1520000 -45.3270000
 -24.4270000   0.9960000 -45.8660000 -25.2330000   2.1030000 -45.2210000
 -25.1070000   1.2540000 -45.3820000 -23.4390000  -3.0160000 -39.7910000
 -23.1700000  -3.9200000 -39.6310000 -24.3910000  -3.0290000 -39.6900000
 -23.5260000  -3.1330000 -39.7570000 -23.1300000  -7.3100000 -42.0940000
 -23.7390000  -8.0460000 -42.0380000 -23.5610000  -6.6860000 -42.6770000
 -23.2620000  -7.3250000 -42.1610000 -34.0320000  -6.7220000 -43.6690000
 -34.4920000  -6.3780000 -44.4340000 -33.9510000  -7.6600000 -43.8400000
 -34.0800000  -6.7980000 -43.7890000 -30.9950000 -13.6220000 -38.5410000
 -31.7600000 -14.0190000 -38.1230000 -31.2500000 -12.7110000 -38.6890000
 -31.1260000 -13.5560000 -38.5060000 -24.2740000  -5.4510000 -44.0750000
 -24.4470000  -5.5280000 -45.0130000 -23.4910000  -4.9040000 -44.0200000
 -24.1960000  -5.3910000 -44.1880000 -22.4280000  -0.5000000 -40.4650000
 -22.0200000  -0.3280000 -39.6170000 -22.6970000  -1.4170000 -40.4200000
 -22.4100000  -0.5950000 -40.3510000 -23.4150000 -15.8380000 -42.1970000
 -23.7010000 -15.0120000 -41.8060000 -23.6370000 -15.7540000 -43.1240000
 -23.4800000 -15.7210000 -42.2650000 -19.9210000  -2.8530000 -38.4720000
 -20.6940000  -2.8220000 -37.9080000 -19.3040000  -2.2430000 -38.0660000
 -19.9410000  -2.7710000 -38.3470000 -25.0200000  -7.7260000 -38.4030000
 -25.8310000  -7.6880000 -38.9100000 -24.6560000  -8.5890000 -38.5980000
 -25.0780000  -7.8310000 -38.4930000 -31.6800000 -15.6830000 -47.8450000
 -31.8590000 -15.0930000 -48.5770000 -31.1950000 -16.4100000 -48.2350000
 -31.6410000 -15.7000000 -47.9880000 -35.3940000  -5.5860000 -45.4630000
 -35.1350000  -4.8930000 -46.0710000 -36.2670000  -5.3270000 -45.1640000
 -35.4720000  -5.4640000 -45.5030000 -21.7070000  -7.9960000 -48.4820000
 -20.8530000  -8.3370000 -48.7520000 -21.6850000  -8.0250000 -47.5260000
 -21.5950000  -8.0440000 -48.3950000 -28.7760000 -11.0850000 -40.5770000
 -29.5300000 -11.4150000 -41.0650000 -28.9780000 -11.2830000 -39.6630000
 -28.8980000 -11.1530000 -40.5230000 -25.2260000 -11.7620000 -38.5080000
 -26.0100000 -11.8010000 -37.9600000 -24.5900000 -12.3130000 -38.0540000
 -25.2450000 -11.8370000 -38.3800000 -19.6300000 -17.9700000 -48.9740000
 -20.2260000 -18.3200000 -48.3120000 -18.9120000 -18.6020000 -49.0090000
 -19.6140000 -18.0950000 -48.8940000 -23.8320000 -13.2390000 -41.3050000
 -23.1380000 -13.0450000 -40.6730000 -24.4670000 -12.5330000 -41.1870000
 -23.8250000 -13.1240000 -41.2090000 -23.3660000  -0.9690000 -43.8300000
 -23.8400000  -0.1360000 -43.8370000 -23.8970000  -1.5500000 -44.3740000
 -23.4950000  -0.9370000 -43.9000000 -29.0900000 -23.5350000  44.7380000
 -29.2640000 -23.3740000  45.6650000 -29.8550000 -24.0210000  44.4320000
 -29.2100000 -23.5770000  44.8180000 -32.5190000 -28.6380000  40.0680000
 -32.6730000 -28.1810000  40.8950000 -31.8080000 -29.2480000  40.2600000
 -32.4480000 -28.6580000  40.1980000 -22.3580000 -22.4800000  38.2550000
 -23.2200000 -22.1510000  37.9980000 -22.4550000 -23.4310000  38.2530000
 -22.4810000 -22.5590000  38.2220000 -35.6320000 -22.3820000  45.0320000
 -35.5940000 -21.4890000  44.6870000 -36.4320000 -22.4030000  45.5580000
 -35.7300000 -22.2700000  45.0550000 -30.9210000 -20.5920000  41.7200000
 -31.7200000 -21.1190000  41.7300000 -30.5780000 -20.6950000  40.8330000
 -30.9800000 -20.6730000  41.6080000 -27.0140000 -25.6070000  44.1870000
 -27.4400000 -26.2140000  43.5830000 -27.6760000 -24.9400000  44.3650000
 -27.1530000 -25.5990000  44.1330000 -20.1420000 -30.6840000  45.2820000
 -20.9210000 -30.5740000  45.8270000 -19.7980000 -29.7980000  45.1720000
 -20.1980000 -30.5570000  45.3370000 -25.9350000 -26.4160000  39.7320000
 -25.1650000 -26.3950000  40.2990000 -25.6160000 -26.7840000  38.9090000
 -25.7960000 -26.4600000  39.6990000 -20.2000000 -26.7800000  41.4630000
 -20.5650000 -26.1380000  42.0730000 -20.9650000 -27.2010000  41.0700000
 -20.3440000 -26.7510000  41.4900000 -22.2170000 -25.1790000  38.4800000
 -22.1750000 -25.3130000  37.5320000 -21.3320000 -24.9120000  38.7220000
 -22.0980000 -25.1620000  38.3890000 -25.2240000 -23.0120000  45.0680000
 -25.0480000 -22.1620000  44.6650000 -25.9840000 -23.3490000  44.5940000
 -25.2980000 -22.9460000  44.9570000 -25.4350000 -19.6870000  46.3200000
 -24.8480000 -18.9500000  46.1450000 -26.2160000 -19.5010000  45.8020000
 -25.4590000 -19.5690000  46.2320000 -29.0260000 -31.0460000  43.3890000
 -29.8510000 -31.0650000  42.9040000 -29.2760000 -31.2320000  44.2940000
 -29.1630000 -31.0720000  43.4430000 -31.9110000 -21.3810000  48.0070000
 -32.1730000 -21.7560000  48.8480000 -31.1800000 -21.9260000  47.7180000
 -31.8510000 -21.4990000  48.0770000 -33.6730000 -23.1880000  46.7220000
 -34.3970000 -22.8850000  46.1730000 -33.0800000 -22.4380000  46.7690000
 -33.6900000 -23.0530000  46.6570000 -34.2010000 -29.4240000  38.0590000
 -34.8030000 -28.6870000  37.9640000 -33.5710000 -29.1350000  38.7200000
 -34.1970000 -29.2930000  38.1320000 -29.7730000 -20.9620000  39.3520000
 -29.3150000 -21.7840000  39.5240000 -29.0750000 -20.3220000  39.2140000
 -29.6250000 -20.9850000  39.3570000 -31.0500000 -30.4710000  48.3340000
 -30.1690000 -30.1800000  48.5670000 -30.9650000 -30.8050000  47.4420000
 -30.9260000 -30.4760000  48.2500000 -21.6250000 -26.6440000  48.6400000
 -21.1850000 -26.1370000  49.3230000 -22.2960000 -27.1410000  49.1070000
 -21.6530000 -26.6430000  48.7870000 -26.8970000 -23.8150000  39.8070000
 -26.5930000 -24.7080000  39.9630000 -26.3700000 -23.2750000  40.3950000
 -26.7910000 -23.8600000  39.9010000 -20.7650000 -22.9030000  41.3600000
 -20.6430000 -22.0280000  40.9920000 -20.5550000 -23.4960000  40.6380000
 -20.7220000 -22.8660000  41.2190000 -30.0140000 -23.1550000  47.2320000
 -30.4940000 -23.9620000  47.4090000 -29.2850000 -23.1680000  47.8520000
 -29.9820000 -23.2600000  47.3340000 -16.6020000 -30.2370000  45.6170000
 -16.5880000 -30.5500000  46.5220000 -16.6520000 -29.2840000  45.6930000
 -16.6060000 -30.1550000  45.7430000 -34.6370000 -20.8950000  41.0770000
 -35.2190000 -20.3970000  41.6500000 -34.4080000 -20.2840000  40.3760000
 -34.6820000 -20.7530000  41.0600000 -21.0370000 -29.3360000  39.5000000
 -21.4940000 -29.5770000  40.3070000 -20.1110000 -29.4760000  39.6990000
 -20.9770000 -29.3850000  39.6300000 -24.9920000 -27.0820000  45.7120000
 -24.4470000 -26.5810000  46.3180000 -25.6860000 -26.4750000  45.4550000
 -25.0110000 -26.9410000  45.7570000 -22.2880000 -29.8360000  41.9040000
 -22.3320000 -29.2170000  42.6350000 -22.6550000 -30.6470000  42.2570000
 -22.3400000 -29.8600000  42.0430000 -27.5380000 -28.9720000  42.3830000
 -28.2100000 -29.6530000  42.4130000 -27.4600000 -28.7550000  41.4550000
 -27.6150000 -29.0310000  42.2680000 -31.4880000 -25.4800000  48.3300000
 -31.5280000 -26.4350000  48.2930000 -31.9430000 -25.2510000  49.1400000
 -31.5510000 -25.5720000  48.4300000 -35.5720000 -25.2800000  44.3520000
 -34.8930000 -25.5590000  44.9650000 -35.4750000 -24.3300000  44.3030000
 -35.4730000 -25.1930000  44.4250000 -30.1590000 -26.5430000  39.4390000
 -30.5410000 -26.8530000  38.6170000 -29.9190000 -25.6320000  39.2630000
 -30.1760000 -26.4660000  39.3120000 -22.1460000 -23.9720000  45.3600000
 -23.0610000 -23.9620000  45.0770000 -22.0240000 -24.8400000  45.7440000
 -22.2480000 -24.0820000  45.3730000 -32.5240000 -27.6550000  42.4430000
 -31.7010000 -27.1690000  42.4050000 -32.4730000 -28.1500000  43.2600000
 -32.4120000 -27.6560000  42.5430000 -35.8330000 -19.7800000  46.5190000
 -36.3750000 -19.3570000  47.1870000 -34.9350000 -19.5830000  46.7820000
 -35.7890000 -19.7000000  46.6380000 -30.2300000 -26.0180000  42.4450000
 -30.7530000 -25.3150000  42.8320000 -30.2170000 -25.8220000  41.5100000
 -30.2940000 -25.9030000  42.3750000 -23.1860000 -31.1510000  38.6100000
 -22.7090000 -31.5050000  37.8610000 -22.6850000 -30.3800000  38.8720000
 -23.0610000 -31.0970000  38.5470000 -25.2460000 -29.9360000  45.7230000
 -24.7480000 -30.1430000  44.9320000 -25.0620000 -29.0110000  45.8870000
 -25.1590000 -29.8440000  45.6420000 -20.5580000 -19.1650000  47.7900000
 -20.7050000 -20.1070000  47.8720000 -19.9050000 -18.9660000  48.4620000
 -20.4940000 -19.2600000  47.8870000 -19.2250000 -22.8860000  46.5770000
 -20.0700000 -22.4730000  46.7600000 -19.3570000 -23.8080000  46.7940000
 -19.3500000 -22.9510000  46.6280000 -27.9250000 -29.3400000  46.3450000
 -28.3320000 -28.5800000  45.9300000 -27.0640000 -29.4050000  45.9350000
 -27.8670000 -29.2510000  46.2390000 -23.3880000 -28.1010000  43.8270000
 -22.7150000 -27.6900000  44.3680000 -24.1980000 -27.6550000  44.0730000
 -23.4050000 -27.9910000  43.9280000 -35.2350000 -27.6100000  47.3300000
 -34.2780000 -27.6260000  47.3120000 -35.4800000 -28.4240000  47.7700000
 -35.1430000 -27.7160000  47.3850000 -31.8870000 -29.1700000  44.5530000
 -31.6990000 -29.9220000  43.9900000 -31.0320000 -28.7800000  44.7230000
 -31.7550000 -29.2160000  44.5030000 -29.4370000 -23.9630000  38.8360000
 -28.5930000 -24.0010000  39.2870000 -29.2150000 -23.7580000  37.9280000
 -29.3000000 -23.9420000  38.7780000 -32.3870000 -28.1730000  47.1050000
 -32.1300000 -28.5910000  46.2820000 -32.3030000 -28.8650000  47.7600000
 -32.3420000 -28.3150000  47.0830000 -25.0750000 -23.7180000  47.5640000
 -24.9760000 -23.4710000  46.6430000 -25.9280000 -23.3680000  47.8150000
 -25.1710000 -23.6420000  47.4780000 -27.6850000 -19.3040000  44.9030000
 -27.8690000 -20.1310000  44.4570000 -27.9960000 -18.6310000  44.2970000
 -27.7480000 -19.3240000  44.7670000 -26.0960000 -20.0690000  37.9920000
 -25.9390000 -19.2300000  37.5590000 -25.8350000 -19.9220000  38.9010000
 -26.0420000 -19.9430000  38.0530000 -23.9860000 -21.2920000  48.1020000
 -24.5300000 -20.6920000  47.5920000 -24.3780000 -22.1530000  47.9570000
 -24.1050000 -21.3250000  48.0180000 -29.8950000 -18.9240000  47.0760000
 -29.9280000 -19.6110000  47.7400000 -29.4180000 -19.3190000  46.3450000
 -29.8390000 -19.0620000  47.0680000 -28.0150000 -28.1960000  39.7630000
 -27.2850000 -27.5760000  39.7530000 -28.7970000 -27.6450000  39.7320000
 -28.0220000 -28.0460000  39.7570000 -28.3830000 -30.8150000  48.8800000
 -28.8320000 -31.5690000  49.2620000 -27.6610000 -31.1950000  48.3800000
 -28.3480000 -30.9600000  48.8640000 -27.4920000 -19.4680000  48.8400000
 -26.7030000 -18.9300000  48.7870000 -28.0920000 -19.0760000  48.2070000
 -27.4680000 -19.3490000  48.7530000 -24.5030000 -20.8380000  43.6930000
 -24.8700000 -20.2570000  44.3570000 -23.6110000 -20.5150000  43.5580000
 -24.4350000 -20.7220000  43.7600000 -26.3970000 -28.4010000  48.6780000
 -26.6650000 -27.7580000  49.3350000 -27.1960000 -28.5830000  48.1820000
 -26.5340000 -28.3420000  48.6980000 -33.6230000 -25.1470000  39.6690000
 -33.5370000 -25.1980000  38.7170000 -34.1770000 -24.3790000  39.8180000
 -33.6830000 -25.0550000  39.5670000 -33.0130000 -25.7690000  45.6350000
 -33.1010000 -24.9890000  46.1830000 -32.9420000 -26.4930000  46.2570000
 -33.0160000 -25.7620000  45.7840000 -20.7440000 -21.6530000  44.0100000
 -20.6740000 -22.2820000  44.7270000 -20.6780000 -22.1850000  43.2180000
 -20.7270000 -21.8010000  44.0000000 -31.2860000 -31.0660000  42.1570000
 -30.9130000 -31.1310000  41.2780000 -32.1910000 -31.3620000  42.0550000
 -31.3550000 -31.1130000  42.0320000 -31.5870000 -23.9090000  40.5910000
 -32.3200000 -24.3980000  40.2140000 -30.9280000 -23.8960000  39.8980000
 -31.5970000 -23.9700000  40.4550000 -28.0960000 -30.4980000  37.7800000
 -28.1150000 -29.8480000  38.4820000 -27.7410000 -31.2860000  38.1920000
 -28.0530000 -30.5150000  37.9220000 -26.1350000 -21.6190000  41.6500000
 -26.8200000 -21.6910000  42.3150000 -25.3360000 -21.4410000  42.1470000
 -26.1200000 -21.6060000  41.8000000 -25.1250000 -22.6470000  37.8970000
 -25.5250000 -21.7800000  37.9470000 -25.6010000 -23.1680000  38.5440000
 -25.2370000 -22.6020000  37.9860000 -31.7460000 -24.3260000  43.7530000
 -32.3820000 -24.7810000  44.3050000 -32.2350000 -23.5920000  43.3800000
 -31.8890000 -24.2900000  43.7770000 -21.4880000 -25.1940000  42.8550000
 -21.4660000 -25.0780000  43.8050000 -21.3150000 -24.3210000  42.5030000
 -21.4630000 -25.0670000  42.9320000 -22.1130000 -19.2540000  43.1620000
 -22.3780000 -19.2900000  42.2430000 -21.4910000 -19.9750000  43.2600000
 -22.0670000 -19.3510000  43.0570000 -24.9390000 -19.2580000  40.6720000
 -25.4550000 -19.9430000  41.0980000 -25.4220000 -18.4510000  40.8460000
 -25.0670000 -19.2430000  40.7500000 -25.2030000 -17.7150000  48.9730000
 -24.4270000 -17.8710000  48.4340000 -25.2330000 -16.7640000  49.0800000
 -25.1070000 -17.6130000  48.9180000 -28.6330000 -21.3030000  43.2020000
 -28.8700000 -22.1160000  43.6470000 -29.4370000 -21.0250000  42.7650000
 -28.7650000 -21.3710000  43.2030000 -35.8360000 -27.9480000  42.8170000
 -34.8800000 -27.9160000  42.8430000 -36.1070000 -27.0310000  42.8550000
 -35.7470000 -27.8270000  42.8250000 -25.1670000 -30.3970000  43.1720000
 -24.5470000 -29.9530000  42.5930000 -25.9780000 -29.8930000  43.0870000
 -25.1910000 -30.2750000  43.0870000 -32.8750000 -22.2610000  42.4030000
 -33.5760000 -21.8630000  41.8860000 -32.4430000 -22.8640000  41.7970000
 -32.9090000 -22.2870000  42.2600000 -29.4560000 -27.9350000  44.5440000
 -28.9420000 -28.5340000  44.0050000 -29.7300000 -27.2440000  43.9400000
 -29.4260000 -27.9230000  44.3980000 -19.7620000 -20.0750000  40.8330000
 -19.1740000 -20.2520000  40.0980000 -20.3520000 -19.3950000  40.5100000
 -19.7620000 -20.0110000  40.6970000 -35.3940000 -24.4530000  48.8370000
 -35.1350000 -23.7600000  48.2300000 -36.2670000 -24.1940000  49.1370000
 -35.4720000 -24.3310000  48.7970000 -21.7070000 -26.8630000  45.8180000
 -20.8530000 -27.2050000  45.5480000 -21.6850000 -26.8920000  46.7750000
 -21.5950000 -26.9110000  45.9050000 -23.5600000 -26.1920000  41.0330000
 -23.1650000 -25.8510000  41.8350000 -23.0700000 -25.7730000  40.3270000
 -23.4470000 -26.0950000  41.0460000 -33.8550000 -20.9800000  32.7140000
 -34.8100000 -21.0470000  32.6820000 -33.6670000 -20.6720000  33.6000000
 -33.9530000 -20.9480000  32.8230000 -29.0900000 -23.5350000  25.8770000
 -29.2640000 -23.3740000  26.8050000 -29.8550000 -24.0210000  25.5710000
 -29.2100000 -23.5770000  25.9570000 -32.5190000 -28.6380000  21.2080000
 -32.6730000 -28.1810000  22.0350000 -31.8080000 -29.2480000  21.4000000
 -32.4480000 -28.6580000  21.3380000 -22.3580000 -22.4800000  19.3940000
 -23.2200000 -22.1510000  19.1380000 -22.4550000 -23.4310000  19.3930000
 -22.4810000 -22.5590000  19.3610000 -35.6320000 -22.3820000  26.1710000
 -35.5940000 -21.4890000  25.8270000 -36.4320000 -22.4030000  26.6970000
 -35.7300000 -22.2700000  26.1940000 -30.9210000 -20.5920000  22.8600000
 -31.7200000 -21.1190000  22.8700000 -30.5780000 -20.6950000  21.9730000
 -30.9800000 -20.6730000  22.7480000 -27.0140000 -25.6070000  25.3270000
 -27.4400000 -26.2140000  24.7230000 -27.6760000 -24.9400000  25.5050000
 -27.1530000 -25.5990000  25.2730000 -20.1420000 -30.6840000  26.4210000
 -20.9210000 -30.5740000  26.9660000 -19.7980000 -29.7980000  26.3120000
 -20.1980000 -30.5570000  26.4770000 -28.8110000 -27.3680000  33.8530000
 -28.9400000 -28.2340000  34.2420000 -28.3680000 -27.5430000  33.0220000
 -28.7710000 -27.5010000  33.7960000 -25.9350000 -26.4160000  20.8720000
 -25.1650000 -26.3950000  21.4390000 -25.6160000 -26.7840000  20.0480000
 -25.7960000 -26.4600000  20.8390000 -20.2000000 -26.7800000  22.6020000
 -20.5650000 -26.1380000  23.2120000 -20.9650000 -27.2010000  22.2100000
 -20.3440000 -26.7510000  22.6300000 -22.2170000 -25.1790000  19.6190000
 -22.1750000 -25.3130000  18.6720000 -21.3320000 -24.9120000  19.8620000
 -22.0980000 -25.1620000  19.5290000 -25.2240000 -23.0120000  26.2080000
 -25.0480000 -22.1620000  25.8050000 -25.9840000 -23.3490000  25.7340000
 -25.2980000 -22.9460000  26.0960000 -25.4350000 -19.6870000  27.4600000
 -24.8480000 -18.9500000  27.2850000 -26.2160000 -19.5010000  26.9410000
 -25.4590000 -19.5690000  27.3710000 -26.6450000 -31.5470000  34.9970000
 -26.0600000 -31.2340000  35.6860000 -27.3710000 -30.9220000  34.9970000
 -26.6630000 -31.4280000  35.0850000 -29.0260000 -31.0460000  24.5290000
 -29.8510000 -31.0650000  24.0440000 -29.2760000 -31.2320000  25.4340000
 -29.1630000 -31.0720000  24.5830000 -31.9110000 -21.3810000  29.1460000
 -32.1730000 -21.7560000  29.9870000 -31.1800000 -21.9260000  28.8570000
 -31.8510000 -21.4990000  29.2160000 -33.6730000 -23.1880000  27.8610000
 -34.3970000 -22.8850000  27.3130000 -33.0800000 -22.4380000  27.9090000
 -33.6900000 -23.0530000  27.7970000 -34.2010000 -29.4240000  19.1990000
 -34.8030000 -28.6870000  19.1030000 -33.5710000 -29.1350000  19.8600000
 -34.1970000 -29.2930000  19.2710000 -29.7730000 -20.9620000  20.4920000
 -29.3150000 -21.7840000  20.6640000 -29.0750000 -20.3220000  20.3530000
 -29.6250000 -20.9850000  20.4960000 -31.0500000 -30.4710000  29.4740000
 -30.1690000 -30.1800000  29.7060000 -30.9650000 -30.8050000  28.5810000
 -30.9260000 -30.4760000  29.3890000 -35.0860000 -22.7130000  38.1450000
 -34.6030000 -22.1530000  37.5380000 -35.5280000 -23.3490000  37.5840000
 -35.0800000 -22.7220000  37.9960000 -31.4600000 -20.9770000  36.9430000
 -30.8850000 -21.0640000  37.7040000 -31.5010000 -20.0350000  36.7820000
 -31.3910000 -20.8680000  37.0190000 -21.6250000 -26.6440000  29.7800000
 -21.1850000 -26.1370000  30.4630000 -22.2960000 -27.1410000  30.2460000
 -21.6530000 -26.6430000  29.9270000 -20.4090000 -24.8760000  32.0080000
 -21.1230000 -24.2710000  31.8090000 -19.6930000 -24.3130000  32.3050000
 -20.4090000 -24.7270000  32.0210000 -31.1050000 -27.1230000  36.8440000
 -31.2620000 -28.0670000  36.8080000 -31.1930000 -26.8310000  35.9370000
 -31.1370000 -27.2070000  36.7230000 -26.8970000 -23.8150000  20.9460000
 -26.5930000 -24.7080000  21.1020000 -26.3700000 -23.2750000  21.5350000
 -26.7910000 -23.8600000  21.0410000 -23.7870000 -28.1420000  30.7000000
 -24.6620000 -28.3990000  30.4100000 -23.4350000 -28.9250000  31.1240000
 -23.8550000 -28.2750000  30.7170000 -34.0780000 -21.2260000  35.8580000
 -34.3300000 -20.3220000  36.0490000 -33.1730000 -21.2910000  36.1610000
 -33.9940000 -21.1180000  35.9210000 -20.7650000 -22.9030000  22.4990000
 -20.6430000 -22.0280000  22.1310000 -20.5550000 -23.4960000  21.7780000
 -20.7220000 -22.8660000  22.3590000 -26.3160000 -23.6180000  35.6330000
 -25.7350000 -23.7820000  36.3740000 -26.9100000 -22.9320000  35.9410000
 -26.3180000 -23.5510000  35.7670000 -30.0140000 -23.1550000  28.3720000
 -30.4940000 -23.9620000  28.5490000 -29.2850000 -23.1680000  28.9910000
 -29.9820000 -23.2600000  28.4740000 -16.6020000 -30.2370000  26.7560000
 -16.5880000 -30.5500000  27.6610000 -16.6520000 -29.2840000  26.8330000
 -16.6060000 -30.1550000  26.8820000 -30.4710000 -30.6530000  32.7600000
 -31.3160000 -30.9730000  33.0760000 -29.9980000 -31.4440000  32.5000000
 -30.5200000 -30.7950000  32.7670000 -33.5450000 -25.4670000  37.0930000
 -32.7330000 -25.9550000  36.9510000 -33.8140000 -25.1900000  36.2170000
 -33.4760000 -25.4940000  36.9620000 -34.6370000 -20.8950000  22.2160000
 -35.2190000 -20.3970000  22.7890000 -34.4080000 -20.2840000  21.5160000
 -34.6820000 -20.7530000  22.2000000 -21.0370000 -29.3360000  20.6400000
 -21.4940000 -29.5770000  21.4460000 -20.1110000 -29.4760000  20.8390000
 -20.9770000 -29.3850000  20.7690000 -31.2820000 -26.4280000  34.1210000
 -30.4030000 -26.8000000  34.0690000 -31.8200000 -27.0080000  33.5840000
 -31.2380000 -26.5490000  34.0460000 -22.2930000 -22.7160000  32.4780000
 -22.6450000 -22.8190000  33.3630000 -22.1450000 -21.7740000  32.3880000
 -22.3200000 -22.6090000  32.5800000 -20.1560000 -20.9490000  34.3570000
 -19.9580000 -21.3450000  35.2070000 -20.8280000 -20.2940000  34.5480000
 -20.2170000 -20.9160000  34.4900000 -24.8380000 -28.1700000  33.7700000
 -25.3950000 -28.5650000  33.0980000 -25.4150000 -27.5600000  34.2300000
 -24.9830000 -28.1420000  33.7430000 -20.9240000 -28.9090000  36.9640000
 -21.7470000 -28.5690000  36.6150000 -21.0690000 -28.9650000  37.9090000
 -21.0470000 -28.8730000  37.0410000 -34.0000000 -28.5920000  31.3960000
 -34.3760000 -28.7190000  32.2660000 -34.5630000 -29.1030000  30.8140000
 -34.1190000 -28.6730000  31.4330000 -24.9920000 -27.0820000  26.8510000
 -24.4470000 -26.5810000  27.4580000 -25.6860000 -26.4750000  26.5940000
 -25.0110000 -26.9410000  26.8960000 -22.2880000 -29.8360000  23.0440000
 -22.3320000 -29.2170000  23.7740000 -22.6550000 -30.6470000  23.3960000
 -22.3400000 -29.8600000  23.1830000 -27.5380000 -28.9720000  23.5230000
 -28.2100000 -29.6530000  23.5530000 -27.4600000 -28.7550000  22.5940000
 -27.6150000 -29.0310000  23.4080000 -26.3530000 -19.9930000  32.6410000
 -26.9010000 -20.0620000  31.8610000 -25.9880000 -20.8700000  32.7570000
 -26.3750000 -20.1140000  32.5560000 -31.9180000 -29.9980000  36.5920000
 -32.0340000 -30.2820000  35.6850000 -32.8100000 -29.8950000  36.9250000
 -32.0480000 -30.0210000  36.5180000 -31.4880000 -25.4800000  29.4700000
 -31.5280000 -26.4350000  29.4330000 -31.9430000 -25.2510000  30.2800000
 -31.5510000 -25.5720000  29.5690000 -23.5230000 -28.8260000  36.1520000
 -24.2150000 -29.4660000  36.3200000 -23.7310000 -28.4700000  35.2890000
 -23.6380000 -28.8630000  36.0630000 -35.5720000 -25.2800000  25.4910000
 -34.8930000 -25.5590000  26.1050000 -35.4750000 -24.3300000  25.4420000
 -35.4730000 -25.1930000  25.5640000 -30.1590000 -26.5430000  20.5780000
 -30.5410000 -26.8530000  19.7570000 -29.9190000 -25.6320000  20.4030000
 -30.1760000 -26.4660000  20.4510000 -27.6450000 -22.8680000  29.8800000
 -27.7100000 -23.3880000  30.6820000 -27.1010000 -22.1190000  30.1230000
 -27.5850000 -22.8390000  30.0140000 -22.1460000 -23.9720000  26.4990000
 -23.0610000 -23.9620000  26.2160000 -22.0240000 -24.8400000  26.8840000
 -22.2480000 -24.0820000  26.5120000 -32.5240000 -27.6550000  23.5830000
 -31.7010000 -27.1690000  23.5450000 -32.4730000 -28.1500000  24.4000000
 -32.4120000 -27.6560000  23.6820000 -35.8330000 -19.7800000  27.6590000
 -36.3750000 -19.3570000  28.3260000 -34.9350000 -19.5830000  27.9210000
 -35.7890000 -19.7000000  27.7780000 -30.2300000 -26.0180000  23.5850000
 -30.7530000 -25.3150000  23.9710000 -30.2170000 -25.8220000  22.6490000
 -30.2940000 -25.9030000  23.5150000 -23.1860000 -31.1510000  19.7490000
 -22.7090000 -31.5050000  19.0000000 -22.6850000 -30.3800000  20.0120000
 -23.0610000 -31.0970000  19.6870000 -34.2920000 -25.7150000  34.5790000
 -34.3300000 -25.3980000  33.6780000 -35.1650000 -26.0740000  34.7440000
 -34.4090000 -25.7210000  34.4860000 -30.3850000 -23.9750000  33.1540000
 -31.1670000 -23.5690000  32.7850000 -30.6720000 -24.8460000  33.4280000
 -30.5210000 -24.0350000  33.1420000 -31.3590000 -28.0180000  31.6330000
 -31.0340000 -28.8210000  32.0400000 -32.2270000 -28.2500000  31.3070000
 -31.4280000 -28.1500000  31.6430000 -35.7420000 -27.0850000  37.6020000
 -34.9400000 -26.5740000  37.4920000 -36.1920000 -26.6660000  38.3370000
 -35.6970000 -26.9650000  37.6820000 -25.2460000 -29.9360000  26.8620000
 -24.7480000 -30.1430000  26.0710000 -25.0620000 -29.0110000  27.0260000
 -25.1590000 -29.8440000  26.7820000 -20.5580000 -19.1650000  28.9300000
 -20.7050000 -20.1070000  29.0110000 -19.9050000 -18.9660000  29.6010000
 -20.4940000 -19.2600000  29.0260000 -19.2250000 -22.8860000  27.7160000
 -20.0700000 -22.4730000  27.9000000 -19.3570000 -23.8080000  27.9340000
 -19.3500000 -22.9510000  27.7670000 -27.9250000 -29.3400000  27.4850000
 -28.3320000 -28.5800000  27.0690000 -27.0640000 -29.4050000  27.0750000
 -27.8670000 -29.2510000  27.3800000 -23.3880000 -28.1010000  24.9670000
 -22.7150000 -27.6900000  25.5070000 -24.1980000 -27.6550000  25.2130000
 -23.4050000 -27.9910000  25.0670000 -35.2350000 -27.6100000  28.4700000
 -34.2780000 -27.6260000  28.4510000 -35.4800000 -28.4240000  28.9100000
 -35.1430000 -27.7160000  28.5240000 -19.7660000 -28.6720000  29.9530000
 -20.1550000 -29.1460000  30.6890000 -20.3020000 -27.8830000  29.8670000
 -19.8850000 -28.6320000  30.0360000 -27.8570000 -24.2470000  32.3180000
 -27.4650000 -23.4260000  32.6140000 -28.7700000 -24.1920000  32.6000000
 -27.9230000 -24.1350000  32.3920000 -22.6340000 -30.9640000  31.4670000
 -22.8980000 -31.6150000  32.1170000 -22.4150000 -31.4760000  30.6890000
 -22.6400000 -31.1120000  31.4510000 -31.8870000 -29.1700000  25.6920000
 -31.6990000 -29.9220000  25.1300000 -31.0320000 -28.7800000  25.8620000
 -31.7550000 -29.2160000  25.6420000 -29.4370000 -23.9630000  19.9750000
 -28.5930000 -24.0010000  20.4260000 -29.2150000 -23.7580000  19.0670000
 -29.3000000 -23.9420000  19.9170000 -32.3870000 -28.1730000  28.2440000
 -32.1300000 -28.5910000  27.4220000 -32.3030000 -28.8650000  28.9000000
 -32.3420000 -28.3150000  28.2230000 -25.0750000 -23.7180000  28.7030000
 -24.9760000 -23.4710000  27.7830000 -25.9280000 -23.3680000  28.9550000
 -25.1710000 -23.6420000  28.6180000 -27.6850000 -19.3040000  26.0420000
 -27.8690000 -20.1310000  25.5960000 -27.9960000 -18.6310000  25.4370000
 -27.7480000 -19.3240000  25.9070000 -26.0960000 -20.0690000  19.1320000
 -25.9390000 -19.2300000  18.6990000 -25.8350000 -19.9220000  20.0410000
 -26.0420000 -19.9430000  19.1930000 -23.9860000 -21.2920000  29.2420000
 -24.5300000 -20.6920000  28.7310000 -24.3780000 -22.1530000  29.0960000
 -24.1050000 -21.3250000  29.1580000 -20.2110000 -29.8830000  32.8650000
 -21.1070000 -30.2080000  32.7780000 -20.3110000 -28.9880000  33.1900000
 -20.3390000 -29.8100000  32.8960000 -29.8950000 -18.9240000  28.2150000
 -29.9280000 -19.6110000  28.8800000 -29.4180000 -19.3190000  27.4850000
 -29.8390000 -19.0620000  28.2070000 -28.0150000 -28.1960000  20.9030000
 -27.2850000 -27.5760000  20.8920000 -28.7970000 -27.6450000  20.8720000
 -28.0220000 -28.0460000  20.8970000 -28.3830000 -30.8150000  30.0190000
 -28.8320000 -31.5690000  30.4010000 -27.6610000 -31.1950000  29.5190000
 -28.3480000 -30.9600000  30.0050000 -26.8480000 -26.6910000  31.7310000
 -27.1250000 -25.8670000  32.1330000 -25.8970000 -26.7050000  31.8400000
 -26.7610000 -26.5870000  31.7960000 -27.4920000 -19.4680000  29.9800000
 -26.7030000 -18.9300000  29.9260000 -28.0920000 -19.0760000  29.3460000
 -27.4680000 -19.3490000  29.8920000 -35.4630000 -28.8430000  33.8680000
 -36.1420000 -28.2050000  34.0880000 -35.8720000 -29.6920000  34.0320000
 -35.6030000 -28.8700000  33.9170000 -24.5030000 -20.8380000  24.8320000
 -24.8700000 -20.2570000  25.4970000 -23.6110000 -20.5150000  24.6980000
 -24.4350000 -20.7220000  24.9000000 -26.3970000 -28.4010000  29.8170000
 -26.6650000 -27.7580000  30.4740000 -27.1960000 -28.5830000  29.3210000
 -26.5340000 -28.3420000  29.8370000 -26.4200000 -30.0670000  32.3800000
 -26.5840000 -29.7580000  31.4880000 -27.2820000 -30.3310000  32.7020000
 -26.5510000 -30.0610000  32.3070000 -33.6230000 -25.1470000  20.8090000
 -33.5370000 -25.1980000  19.8570000 -34.1770000 -24.3790000  20.9580000
 -33.6830000 -25.0550000  20.7060000 -26.4880000 -26.4050000  34.9160000
 -27.3060000 -26.5600000  34.4440000 -26.4400000 -25.4520000  35.0050000
 -26.5860000 -26.3030000  34.8670000 -20.6650000 -20.4310000  31.7150000
 -20.3840000 -20.5280000  32.6250000 -21.4460000 -19.8800000  31.7640000
 -20.7300000 -20.3730000  31.8380000 -33.0130000 -25.7690000  26.7740000
 -33.1010000 -24.9890000  27.3230000 -32.9420000 -26.4930000  27.3970000
 -33.0160000 -25.7620000  26.9240000 -32.9120000 -30.6280000  33.9580000
 -33.0030000 -30.7480000  33.0130000 -33.6350000 -30.0500000  34.1960000
 -33.0160000 -30.5690000  33.8670000 -20.7440000 -21.6530000  25.1500000
 -20.6740000 -22.2820000  25.8670000 -20.6780000 -22.1850000  24.3570000
 -20.7270000 -21.8010000  25.1400000 -31.2860000 -31.0660000  23.2960000
 -30.9130000 -31.1310000  22.4170000 -32.1910000 -31.3620000  23.1950000
 -31.3550000 -31.1130000  23.1710000 -31.5870000 -23.9090000  21.7300000
 -32.3200000 -24.3980000  21.3540000 -30.9280000 -23.8960000  21.0380000
 -31.5970000 -23.9700000  21.5940000 -28.0960000 -30.4980000  18.9200000
 -28.1150000 -29.8480000  19.6220000 -27.7410000 -31.2860000  19.3320000
 -28.0530000 -30.5150000  19.0620000 -32.7260000 -23.2000000  31.6990000
 -33.2960000 -22.5130000  32.0460000 -33.1780000 -24.0160000  31.9130000
 -32.8570000 -23.2160000  31.7710000 -26.1350000 -21.6190000  22.7900000
 -26.8200000 -21.6910000  23.4550000 -25.3360000 -21.4410000  23.2870000
 -26.1200000 -21.6060000  22.9390000 -25.1250000 -22.6470000  19.0370000
 -25.5250000 -21.7800000  19.0870000 -25.6010000 -23.1680000  19.6840000
 -25.2370000 -22.6020000  19.1260000 -31.7460000 -24.3260000  24.8930000
 -32.3820000 -24.7810000  25.4440000 -32.2350000 -23.5920000  24.5200000
 -31.8890000 -24.2900000  24.9160000 -25.8680000 -22.6550000  33.0980000
 -26.0710000 -22.9650000  33.9800000 -25.3550000 -23.3630000  32.7080000
 -25.8280000 -22.7860000  33.1610000 -23.2230000 -25.0530000  35.7450000
 -23.8630000 -25.5860000  36.2170000 -23.2610000 -25.3760000  34.8440000
 -23.3100000 -25.1630000  35.6900000 -29.4560000 -22.6850000  35.8800000
 -29.8430000 -23.0500000  35.0840000 -30.1050000 -22.0560000  36.1950000
 -29.5900000 -22.6530000  35.8190000 -20.5560000 -27.2160000  33.5620000
 -21.4470000 -27.0000000  33.8400000 -20.2800000 -26.4640000  33.0410000
 -20.6350000 -27.0920000  33.5320000 -21.4880000 -25.1940000  23.9940000
 -21.4660000 -25.0780000  24.9440000 -21.3150000 -24.3210000  23.6430000
 -21.4630000 -25.0670000  24.0710000 -22.1130000 -19.2540000  24.3010000
 -22.3780000 -19.2900000  23.3820000 -21.4910000 -19.9750000  24.4000000
 -22.0670000 -19.3510000  24.1960000 -24.9390000 -19.2580000  21.8120000
 -25.4550000 -19.9430000  22.2380000 -25.4220000 -18.4510000  21.9860000
 -25.0670000 -19.2430000  21.8890000 -25.2030000 -17.7150000  30.1130000
 -24.4270000 -17.8710000  29.5740000 -25.2330000 -16.7640000  30.2190000
 -25.1070000 -17.6130000  30.0580000 -28.6330000 -21.3030000  24.3420000
 -28.8700000 -22.1160000  24.7860000 -29.4370000 -21.0250000  23.9050000
 -28.7650000 -21.3710000  24.3430000 -23.4390000 -21.8830000  35.6490000
 -23.1700000 -22.7870000  35.8090000 -24.3910000 -21.8960000  35.7500000
 -23.5260000 -22.0000000  35.6830000 -23.1300000 -26.1780000  33.3460000
 -23.7390000 -26.9130000  33.4020000 -23.5610000 -25.5530000  32.7630000
 -23.2620000 -26.1920000  33.2790000 -34.0320000 -25.5890000  31.7710000
 -34.4920000 -25.2450000  31.0060000 -33.9510000 -26.5280000  31.5990000
 -34.0800000 -25.6650000  31.6510000 -35.8360000 -27.9480000  23.9560000
 -34.8800000 -27.9160000  23.9830000 -36.1070000 -27.0310000  23.9940000
 -35.7470000 -27.8270000  23.9640000 -25.1670000 -30.3970000  24.3110000
 -24.5470000 -29.9530000  23.7320000 -25.9780000 -29.8930000  24.2260000
 -25.1910000 -30.2750000  24.2260000 -32.8750000 -22.2610000  23.5430000
 -33.5760000 -21.8630000  23.0260000 -32.4430000 -22.8640000  22.9370000
 -32.9090000 -22.2870000  23.3990000 -24.2740000 -24.3180000  31.3650000
 -24.4470000 -24.3950000  30.4270000 -23.4910000 -23.7710000  31.4200000
 -24.1960000 -24.2580000  31.2520000 -29.4560000 -27.9350000  25.6840000
 -28.9420000 -28.5340000  25.1440000 -29.7300000 -27.2440000  25.0800000
 -29.4260000 -27.9230000  25.5380000 -22.4280000 -19.3670000  34.9750000
 -22.0200000 -19.1950000  35.8230000 -22.6970000 -20.2840000  35.0200000
 -22.4100000 -19.4620000  35.0890000 -19.7620000 -20.0750000  21.9730000
 -19.1740000 -20.2520000  21.2380000 -20.3520000 -19.3950000  21.6490000
 -19.7620000 -20.0110000  21.8370000 -19.9210000 -21.7200000  36.9680000
 -20.6940000 -21.6890000  37.5320000 -19.3040000 -21.1100000  37.3740000
 -19.9410000 -21.6380000  37.0930000 -25.0200000 -26.5930000  37.0370000
 -25.8310000 -26.5550000  36.5300000 -24.6560000 -27.4560000  36.8420000
 -25.0780000 -26.6980000  36.9470000 -35.3940000 -24.4530000  29.9770000
 -35.1350000 -23.7600000  29.3690000 -36.2670000 -24.1940000  30.2760000
 -35.4720000 -24.3310000  29.9370000 -21.7070000 -26.8630000  26.9580000
 -20.8530000 -27.2050000  26.6880000 -21.6850000 -26.8920000  27.9140000
 -21.5950000 -26.9110000  27.0450000 -28.7760000 -29.9520000  34.8630000
 -29.5300000 -30.2820000  34.3740000 -28.9780000 -30.1500000  35.7770000
 -28.8980000 -30.0200000  34.9170000 -25.2260000 -30.6300000  36.9320000
 -26.0100000 -30.6680000  37.4800000 -24.5900000 -31.1800000  37.3860000
 -25.2450000 -30.7050000  37.0600000 -23.5600000 -26.1920000  22.1730000
 -23.1650000 -25.8510000  22.9750000 -23.0700000 -25.7730000  21.4660000
 -23.4470000 -26.0950000  22.1850000 -23.3660000 -19.8360000  31.6100000
 -23.8400000 -19.0030000  31.6030000 -23.8970000 -20.4170000  31.0660000
 -23.4950000 -19.8040000  31.5400000 -33.8550000 -20.9800000  13.8540000
 -34.8100000 -21.0470000  13.8220000 -33.6670000 -20.6720000  14.7400000
 -33.9530000 -20.9480000  13.9630000 -29.0900000 -23.5350000   7.0170000
 -29.2640000 -23.3740000   7.9450000 -29.8550000 -24.0210000   6.7110000
 -29.2100000 -23.5770000   7.0970000 -32.5190000 -28.6380000   2.3480000
 -32.6730000 -28.1810000   3.1750000 -31.8080000 -29.2480000   2.5400000
 -32.4480000 -28.6580000   2.4780000 -22.3580000 -22.4800000   0.5340000
 -23.2200000 -22.1510000   0.2780000 -22.4550000 -23.4310000   0.5330000
 -22.4810000 -22.5590000   0.5010000 -35.6320000 -22.3820000   7.3110000
 -35.5940000 -21.4890000   6.9670000 -36.4320000 -22.4030000   7.8370000
 -35.7300000 -22.2700000   7.3340000 -30.9210000 -20.5920000   4.0000000
 -31.7200000 -21.1190000   4.0100000 -30.5780000 -20.6950000   3.1130000
 -30.9800000 -20.6730000   3.8880000 -27.0140000 -25.6070000   6.4670000
 -27.4400000 -26.2140000   5.8630000 -27.6760000 -24.9400000   6.6450000
 -27.1530000 -25.5990000   6.4130000 -20.1420000 -30.6840000   7.5610000
 -20.9210000 -30.5740000   8.1060000 -19.7980000 -29.7980000   7.4520000
 -20.1980000 -30.5570000   7.6170000 -28.8110000 -27.3680000  14.9930000
 -28.9400000 -28.2340000  15.3820000 -28.3680000 -27.5430000  14.1620000
 -28.7710000 -27.5010000  14.9360000 -25.9350000 -26.4160000   2.0120000
 -25.1650000 -26.3950000   2.5790000 -25.6160000 -26.7840000   1.1880000
 -25.7960000 -26.4600000   1.9790000 -20.2000000 -26.7800000   3.7420000
 -20.5650000 -26.1380000   4.3520000 -20.9650000 -27.2010000   3.3500000
 -20.3440000 -26.7510000   3.7700000 -22.2170000 -25.1790000   0.7590000
 -22.1750000 -25.3130000  -0.1880000 -21.3320000 -24.9120000   1.0020000
 -22.0980000 -25.1620000   0.6690000 -25.2240000 -23.0120000   7.3480000
 -25.0480000 -22.1620000   6.9450000 -25.9840000 -23.3490000   6.8740000
 -25.2980000 -22.9460000   7.2360000 -25.4350000 -19.6870000   8.6000000
 -24.8480000 -18.9500000   8.4250000 -26.2160000 -19.5010000   8.0810000
 -25.4590000 -19.5690000   8.5110000 -26.6450000 -31.5470000  16.1370000
 -26.0600000 -31.2340000  16.8260000 -27.3710000 -30.9220000  16.1370000
 -26.6630000 -31.4280000  16.2250000 -29.0260000 -31.0460000   5.6690000
 -29.8510000 -31.0650000   5.1840000 -29.2760000 -31.2320000   6.5740000
 -29.1630000 -31.0720000   5.7230000 -31.9110000 -21.3810000  10.2860000
 -32.1730000 -21.7560000  11.1270000 -31.1800000 -21.9260000   9.9970000
 -31.8510000 -21.4990000  10.3560000 -33.6730000 -23.1880000   9.0010000
 -34.3970000 -22.8850000   8.4530000 -33.0800000 -22.4380000   9.0490000
 -33.6900000 -23.0530000   8.9370000 -34.2010000 -29.4240000   0.3390000
 -34.8030000 -28.6870000   0.2430000 -33.5710000 -29.1350000   1.0000000
 -34.1970000 -29.2930000   0.4110000 -29.7730000 -20.9620000   1.6320000
 -29.3150000 -21.7840000   1.8040000 -29.0750000 -20.3220000   1.4930000
 -29.6250000 -20.9850000   1.6360000 -31.0500000 -30.4710000  10.6140000
 -30.1690000 -30.1800000  10.8460000 -30.9650000 -30.8050000   9.7210000
 -30.9260000 -30.4760000  10.5290000 -35.0860000 -22.7130000  19.2850000
 -34.6030000 -22.1530000  18.6780000 -35.5280000 -23.3490000  18.7240000
 -35.0800000 -22.7220000  19.1360000 -31.4600000 -20.9770000  18.0830000
 -30.8850000 -21.0640000  18.8440000 -31.5010000 -20.0350000  17.9210000
 -31.3910000 -20.8680000  18.1590000 -21.6250000 -26.6440000  10.9200000
 -21.1850000 -26.1370000  11.6030000 -22.2960000 -27.1410000  11.3860000
 -21.6530000 -26.6430000  11.0670000 -20.4090000 -24.8760000  13.1480000
 -21.1230000 -24.2710000  12.9490000 -19.6930000 -24.3130000  13.4450000
 -20.4090000 -24.7270000  13.1610000 -31.1050000 -27.1230000  17.9840000
 -31.2620000 -28.0670000  17.9480000 -31.1930000 -26.8310000  17.0770000
 -31.1370000 -27.2070000  17.8630000 -26.8970000 -23.8150000   2.0860000
 -26.5930000 -24.7080000   2.2420000 -26.3700000 -23.2750000   2.6750000
 -26.7910000 -23.8600000   2.1810000 -23.7870000 -28.1420000  11.8400000
 -24.6620000 -28.3990000  11.5500000 -23.4350000 -28.9250000  12.2640000
 -23.8550000 -28.2750000  11.8570000 -34.0780000 -21.2260000  16.9980000
 -34.3300000 -20.3220000  17.1890000 -33.1730000 -21.2910000  17.3010000
 -33.9940000 -21.1180000  17.0610000 -20.7650000 -22.9030000   3.6390000
 -20.6430000 -22.0280000   3.2710000 -20.5550000 -23.4960000   2.9180000
 -20.7220000 -22.8660000   3.4990000 -26.3160000 -23.6180000  16.7730000
 -25.7350000 -23.7820000  17.5140000 -26.9100000 -22.9320000  17.0810000
 -26.3180000 -23.5510000  16.9070000 -30.0140000 -23.1550000   9.5120000
 -30.4940000 -23.9620000   9.6890000 -29.2850000 -23.1680000  10.1310000
 -29.9820000 -23.2600000   9.6140000 -16.6020000 -30.2370000   7.8960000
 -16.5880000 -30.5500000   8.8010000 -16.6520000 -29.2840000   7.9730000
 -16.6060000 -30.1550000   8.0220000 -30.4710000 -30.6530000  13.8990000
 -31.3160000 -30.9730000  14.2160000 -29.9980000 -31.4440000  13.6400000
 -30.5200000 -30.7950000  13.9070000 -33.5450000 -25.4670000  18.2330000
 -32.7330000 -25.9550000  18.0910000 -33.8140000 -25.1900000  17.3570000
 -33.4760000 -25.4940000  18.1020000 -34.6370000 -20.8950000   3.3560000
 -35.2190000 -20.3970000   3.9290000 -34.4080000 -20.2840000   2.6560000
 -34.6820000 -20.7530000   3.3400000 -21.0370000 -29.3360000   1.7800000
 -21.4940000 -29.5770000   2.5860000 -20.1110000 -29.4760000   1.9790000
 -20.9770000 -29.3850000   1.9090000 -31.2820000 -26.4280000  15.2610000
 -30.4030000 -26.8000000  15.2090000 -31.8200000 -27.0080000  14.7240000
 -31.2380000 -26.5490000  15.1860000 -22.2930000 -22.7160000  13.6180000
 -22.6450000 -22.8190000  14.5030000 -22.1450000 -21.7740000  13.5280000
 -22.3200000 -22.6090000  13.7200000 -20.1560000 -20.9490000  15.4970000
 -19.9580000 -21.3450000  16.3470000 -20.8280000 -20.2940000  15.6880000
 -20.2170000 -20.9160000  15.6300000 -24.8380000 -28.1700000  14.9100000
 -25.3950000 -28.5650000  14.2380000 -25.4150000 -27.5600000  15.3700000
 -24.9830000 -28.1420000  14.8830000 -20.9240000 -28.9090000  18.1040000
 -21.7470000 -28.5690000  17.7550000 -21.0690000 -28.9650000  19.0490000
 -21.0470000 -28.8730000  18.1800000 -34.0000000 -28.5920000  12.5360000
 -34.3760000 -28.7190000  13.4060000 -34.5630000 -29.1030000  11.9540000
 -34.1190000 -28.6730000  12.5730000 -24.9920000 -27.0820000   7.9910000
 -24.4470000 -26.5810000   8.5980000 -25.6860000 -26.4750000   7.7340000
 -25.0110000 -26.9410000   8.0360000 -22.2880000 -29.8360000   4.1840000
 -22.3320000 -29.2170000   4.9140000 -22.6550000 -30.6470000   4.5360000
 -22.3400000 -29.8600000   4.3230000 -27.5380000 -28.9720000   4.6630000
 -28.2100000 -29.6530000   4.6930000 -27.4600000 -28.7550000   3.7340000
 -27.6150000 -29.0310000   4.5480000 -26.3530000 -19.9930000  13.7810000
 -26.9010000 -20.0620000  13.0010000 -25.9880000 -20.8700000  13.8970000
 -26.3750000 -20.1140000  13.6960000 -31.9180000 -29.9980000  17.7320000
 -32.0340000 -30.2820000  16.8250000 -32.8100000 -29.8950000  18.0650000
 -32.0480000 -30.0210000  17.6590000 -31.4880000 -25.4800000  10.6100000
 -31.5280000 -26.4350000  10.5730000 -31.9430000 -25.2510000  11.4200000
 -31.5510000 -25.5720000  10.7090000 -23.5230000 -28.8260000  17.2920000
 -24.2150000 -29.4660000  17.4600000 -23.7310000 -28.4700000  16.4290000
 -23.6380000 -28.8630000  17.2030000 -35.5720000 -25.2800000   6.6310000
 -34.8930000 -25.5590000   7.2450000 -35.4750000 -24.3300000   6.5820000
 -35.4730000 -25.1930000   6.7040000 -30.1590000 -26.5430000   1.7180000
 -30.5410000 -26.8530000   0.8970000 -29.9190000 -25.6320000   1.5430000
 -30.1760000 -26.4660000   1.5910000 -27.6450000 -22.8680000  11.0200000
 -27.7100000 -23.3880000  11.8220000 -27.1010000 -22.1190000  11.2630000
 -27.5850000 -22.8390000  11.1540000 -22.1460000 -23.9720000   7.6390000
 -23.0610000 -23.9620000   7.3560000 -22.0240000 -24.8400000   8.0240000
 -22.2480000 -24.0820000   7.6520000 -32.5240000 -27.6550000   4.7230000
 -31.7010000 -27.1690000   4.6850000 -32.4730000 -28.1500000   5.5400000
 -32.4120000 -27.6560000   4.8220000 -35.8330000 -19.7800000   8.7990000
 -36.3750000 -19.3570000   9.4660000 -34.9350000 -19.5830000   9.0610000
 -35.7890000 -19.7000000   8.9180000 -30.2300000 -26.0180000   4.7250000
 -30.7530000 -25.3150000   5.1110000 -30.2170000 -25.8220000   3.7890000
 -30.2940000 -25.9030000   4.6550000 -23.1860000 -31.1510000   0.8890000
 -22.7090000 -31.5050000   0.1400000 -22.6850000 -30.3800000   1.1520000
 -23.0610000 -31.0970000   0.8270000 -34.2920000 -25.7150000  15.7190000
 -34.3300000 -25.3980000  14.8170000 -35.1650000 -26.0740000  15.8840000
 -34.4090000 -25.7210000  15.6250000 -30.3850000 -23.9750000  14.2940000
 -31.1670000 -23.5690000  13.9250000 -30.6720000 -24.8460000  14.5670000
 -30.5210000 -24.0350000  14.2820000 -31.3590000 -28.0180000  12.7730000
 -31.0340000 -28.8210000  13.1800000 -32.2270000 -28.2500000  12.4470000
 -31.4280000 -28.1500000  12.7830000 -35.7420000 -27.0850000  18.7420000
 -34.9400000 -26.5740000  18.6320000 -36.1920000 -26.6660000  19.4760000
 -35.6970000 -26.9650000  18.8220000 -25.2460000 -29.9360000   8.0020000
 -24.7480000 -30.1430000   7.2110000 -25.0620000 -29.0110000   8.1660000
 -25.1590000 -29.8440000   7.9220000 -20.5580000 -19.1650000  10.0700000
 -20.7050000 -20.1070000  10.1510000 -19.9050000 -18.9660000  10.7410000
 -20.4940000 -19.2600000  10.1660000 -19.2250000 -22.8860000   8.8560000
 -20.0700000 -22.4730000   9.0400000 -19.3570000 -23.8080000   9.0740000
 -19.3500000 -22.9510000   8.9070000 -27.9250000 -29.3400000   8.6250000
 -28.3320000 -28.5800000   8.2090000 -27.0640000 -29.4050000   8.2150000
 -27.8670000 -29.2510000   8.5190000 -23.3880000 -28.1010000   6.1070000
 -22.7150000 -27.6900000   6.6470000 -24.1980000 -27.6550000   6.3530000
 -23.4050000 -27.9910000   6.2070000 -35.2350000 -27.6100000   9.6100000
 -34.2780000 -27.6260000   9.5910000 -35.4800000 -28.4240000  10.0500000
 -35.1430000 -27.7160000   9.6640000 -19.7660000 -28.6720000  11.0930000
 -20.1550000 -29.1460000  11.8290000 -20.3020000 -27.8830000  11.0070000
 -19.8850000 -28.6320000  11.1760000 -27.8570000 -24.2470000  13.4580000
 -27.4650000 -23.4260000  13.7540000 -28.7700000 -24.1920000  13.7400000
 -27.9230000 -24.1350000  13.5320000 -22.6340000 -30.9640000  12.6070000
 -22.8980000 -31.6150000  13.2570000 -22.4150000 -31.4760000  11.8290000
 -22.6400000 -31.1120000  12.5910000 -31.8870000 -29.1700000   6.8320000
 -31.6990000 -29.9220000   6.2700000 -31.0320000 -28.7800000   7.0020000
 -31.7550000 -29.2160000   6.7820000 -29.4370000 -23.9630000   1.1150000
 -28.5930000 -24.0010000   1.5660000 -29.2150000 -23.7580000   0.2070000
 -29.3000000 -23.9420000   1.0570000 -32.3870000 -28.1730000   9.3840000
 -32.1300000 -28.5910000   8.5620000 -32.3030000 -28.8650000  10.0400000
 -32.3420000 -28.3150000   9.3630000 -25.0750000 -23.7180000   9.8430000
 -24.9760000 -23.4710000   8.9230000 -25.9280000 -23.3680000  10.0950000
 -25.1710000 -23.6420000   9.7580000 -27.6850000 -19.3040000   7.1820000
 -27.8690000 -20.1310000   6.7360000 -27.9960000 -18.6310000   6.5770000
 -27.7480000 -19.3240000   7.0470000 -26.0960000 -20.0690000   0.2720000
 -25.9390000 -19.2300000  -0.1610000 -25.8350000 -19.9220000   1.1810000
 -26.0420000 -19.9430000   0.3330000 -23.9860000 -21.2920000  10.3820000
 -24.5300000 -20.6920000   9.8710000 -24.3780000 -22.1530000  10.2360000
 -24.1050000 -21.3250000  10.2980000 -20.2110000 -29.8830000  14.0050000
 -21.1070000 -30.2080000  13.9180000 -20.3110000 -28.9880000  14.3300000
 -20.3390000 -29.8100000  14.0360000 -29.8950000 -18.9240000   9.3550000
 -29.9280000 -19.6110000  10.0200000 -29.4180000 -19.3190000   8.6250000
 -29.8390000 -19.0620000   9.3470000 -28.0150000 -28.1960000   2.0430000
 -27.2850000 -27.5760000   2.0320000 -28.7970000 -27.6450000   2.0120000
 -28.0220000 -28.0460000   2.0370000 -28.3830000 -30.8150000  11.1590000
 -28.8320000 -31.5690000  11.5410000 -27.6610000 -31.1950000  10.6590000
 -28.3480000 -30.9600000  11.1440000 -26.8480000 -26.6910000  12.8710000
 -27.1250000 -25.8670000  13.2730000 -25.8970000 -26.7050000  12.9800000
 -26.7610000 -26.5870000  12.9360000 -27.4920000 -19.4680000  11.1200000
 -26.7030000 -18.9300000  11.0660000 -28.0920000 -19.0760000  10.4860000
 -27.4680000 -19.3490000  11.0320000 -35.4630000 -28.8430000  15.0080000
 -36.1420000 -28.2050000  15.2280000 -35.8720000 -29.6920000  15.1710000
 -35.6030000 -28.8700000  15.0570000 -24.5030000 -20.8380000   5.9720000
 -24.8700000 -20.2570000   6.6370000 -23.6110000 -20.5150000   5.8380000
 -24.4350000 -20.7220000   6.0400000 -26.3970000 -28.4010000  10.9570000
 -26.6650000 -27.7580000  11.6140000 -27.1960000 -28.5830000  10.4610000
 -26.5340000 -28.3420000  10.9770000 -26.4200000 -30.0670000  13.5190000
 -26.5840000 -29.7580000  12.6280000 -27.2820000 -30.3310000  13.8420000
 -26.5510000 -30.0610000  13.4470000 -33.6230000 -25.1470000   1.9490000
 -33.5370000 -25.1980000   0.9970000 -34.1770000 -24.3790000   2.0980000
 -33.6830000 -25.0550000   1.8460000 -26.4880000 -26.4050000  16.0550000
 -27.3060000 -26.5600000  15.5840000 -26.4400000 -25.4520000  16.1440000
 -26.5860000 -26.3030000  16.0060000 -20.6650000 -20.4310000  12.8550000
 -20.3840000 -20.5280000  13.7650000 -21.4460000 -19.8800000  12.9040000
 -20.7300000 -20.3730000  12.9780000 -33.0130000 -25.7690000   7.9140000
 -33.1010000 -24.9890000   8.4630000 -32.9420000 -26.4930000   8.5370000
 -33.0160000 -25.7620000   8.0640000 -32.9120000 -30.6280000  15.0980000
 -33.0030000 -30.7480000  14.1530000 -33.6350000 -30.0500000  15.3360000
 -33.0160000 -30.5690000  15.0070000 -20.7440000 -21.6530000   6.2900000
 -20.6740000 -22.2820000   7.0070000 -20.6780000 -22.1850000   5.4970000
 -20.7270000 -21.8010000   6.2800000 -31.2860000 -31.0660000   4.4360000
 -30.9130000 -31.1310000   3.5570000 -32.1910000 -31.3620000   4.3350000
 -31.3550000 -31.1130000   4.3110000 -31.5870000 -23.9090000   2.8700000
 -32.3200000 -24.3980000   2.4940000 -30.9280000 -23.8960000   2.1780000
 -31.5970000 -23.9700000   2.7340000 -28.0960000 -30.4980000   0.0600000
 -28.1150000 -29.8480000   0.7620000 -27.7410000 -31.2860000   0.4720000
 -28.0530000 -30.5150000   0.2020000 -32.7260000 -23.2000000  12.8390000
 -33.2960000 -22.5130000  13.1860000 -33.1780000 -24.0160000  13.0530000
 -32.8570000 -23.2160000  12.9110000 -26.1350000 -21.6190000   3.9300000
 -26.8200000 -21.6910000   4.5950000 -25.3360000 -21.4410000   4.4270000
 -26.1200000 -21.6060000   4.0790000 -25.1250000 -22.6470000   0.1770000
 -25.5250000 -21.7800000   0.2270000 -25.6010000 -23.1680000   0.8240000
 -25.2370000 -22.6020000   0.2660000 -31.7460000 -24.3260000   6.0330000
 -32.3820000 -24.7810000   6.5840000 -32.2350000 -23.5920000   5.6600000
 -31.8890000 -24.2900000   6.0560000 -25.8680000 -22.6550000  14.2380000
 -26.0710000 -22.9650000  15.1200000 -25.3550000 -23.3630000  13.8480000
 -25.8280000 -22.7860000  14.3010000 -23.2230000 -25.0530000  16.8850000
 -23.8630000 -25.5860000  17.3570000 -23.2610000 -25.3760000  15.9840000
 -23.3100000 -25.1630000  16.8300000 -29.4560000 -22.6850000  17.0200000
 -29.8430000 -23.0500000  16.2240000 -30.1050000 -22.0560000  17.3350000
 -29.5900000 -22.6530000  16.9590000 -20.5560000 -27.2160000  14.7020000
 -21.4470000 -27.0000000  14.9800000 -20.2800000 -26.4640000  14.1800000
 -20.6350000 -27.0920000  14.6710000 -21.4880000 -25.1940000   5.1340000
 -21.4660000 -25.0780000   6.0840000 -21.3150000 -24.3210000   4.7830000
 -21.4630000 -25.0670000   5.2110000 -22.1130000 -19.2540000   5.4410000
 -22.3780000 -19.2900000   4.5220000 -21.4910000 -19.9750000   5.5400000
 -22.0670000 -19.3510000   5.3360000 -24.9390000 -19.2580000   2.9520000
 -25.4550000 -19.9430000   3.3780000 -25.4220000 -18.4510000   3.1260000
 -25.0670000 -19.2430000   3.0290000 -25.2030000 -17.7150000  11.2530000
 -24.4270000 -17.8710000  10.7140000 -25.2330000 -16.7640000  11.3590000
 -25.1070000 -17.6130000  11.1980000 -28.6330000 -21.3030000   5.4820000
 -28.8700000 -22.1160000   5.9260000 -29.4370000 -21.0250000   5.0450000
 -28.7650000 -21.3710000   5.4830000 -23.4390000 -21.8830000  16.7890000
 -23.1700000 -22.7870000  16.9490000 -24.3910000 -21.8960000  16.8900000
 -23.5260000 -22.0000000  16.8230000 -23.1300000 -26.1780000  14.4860000
 -23.7390000 -26.9130000  14.5420000 -23.5610000 -25.5530000  13.9030000
 -23.2620000 -26.1920000  14.4190000 -34.0320000 -25.5890000  12.9110000
 -34.4920000 -25.2450000  12.1460000 -33.9510000 -26.5280000  12.7390000
 -34.0800000 -25.6650000  12.7910000 -35.8360000 -27.9480000   5.0960000
 -34.8800000 -27.9160000   5.1230000 -36.1070000 -27.0310000   5.1340000
 -35.7470000 -27.8270000   5.1040000 -25.1670000 -30.3970000   5.4510000
 -24.5470000 -29.9530000   4.8720000 -25.9780000 -29.8930000   5.3660000
 -25.1910000 -30.2750000   5.3660000 -32.8750000 -22.2610000   4.6830000
 -33.5760000 -21.8630000   4.1660000 -32.4430000 -22.8640000   4.0770000
 -32.9090000 -22.2870000   4.5390000 -24.2740000 -24.3180000  12.5050000
 -24.4470000 -24.3950000  11.5670000 -23.4910000 -23.7710000  12.5600000
 -24.1960000 -24.2580000  12.3920000 -29.4560000 -27.9350000   6.8240000
 -28.9420000 -28.5340000   6.2840000 -29.7300000 -27.2440000   6.2200000
 -29.4260000 -27.9230000   6.6780000 -22.4280000 -19.3670000  16.1150000
 -22.0200000 -19.1950000  16.9630000 -22.6970000 -20.2840000  16.1600000
 -22.4100000 -19.4620000  16.2290000 -19.7620000 -20.0750000   3.1130000
 -19.1740000 -20.2520000   2.3780000 -20.3520000 -19.3950000   2.7890000
 -19.7620000 -20.0110000   2.9770000 -19.9210000 -21.7200000  18.1080000
 -20.6940000 -21.6890000  18.6720000 -19.3040000 -21.1100000  18.5140000
 -19.9410000 -21.6380000  18.2330000 -25.0200000 -26.5930000  18.1770000
 -25.8310000 -26.5550000  17.6700000 -24.6560000 -27.4560000  17.9820000
 -25.0780000 -26.6980000  18.0870000 -35.3940000 -24.4530000  11.1170000
 -35.1350000 -23.7600000  10.5090000 -36.2670000 -24.1940000  11.4160000
 -35.4720000 -24.3310000  11.0770000 -21.7070000 -26.8630000   8.0980000
 -20.8530000 -27.2050000   7.8280000 -21.6850000 -26.8920000   9.0540000
 -21.5950000 -26.9110000   8.1850000 -28.7760000 -29.9520000  16.0030000
 -29.5300000 -30.2820000  15.5140000 -28.9780000 -30.1500000  16.9170000
 -28.8980000 -30.0200000  16.0570000 -25.2260000 -30.6300000  18.0720000
 -26.0100000 -30.6680000  18.6200000 -24.5900000 -31.1800000  18.5260000
 -25.2450000 -30.7050000  18.2000000 -23.5600000 -26.1920000   3.3130000
 -23.1650000 -25.8510000   4.1150000 -23.0700000 -25.7730000   2.6060000
 -23.4470000 -26.0950000   3.3250000 -23.3660000 -19.8360000  12.7500000
 -23.8400000 -19.0030000  12.7430000 -23.8970000 -20.4170000  12.2060000
 -23.4950000 -19.8040000  12.6800000 -33.8550000 -20.9800000  -5.0060000
 -34.8100000 -21.0470000  -5.0380000 -33.6670000 -20.6720000  -4.1200000
 -33.9530000 -20.9480000  -4.8970000 -29.0900000 -23.5350000 -11.8430000
 -29.2640000 -23.3740000 -10.9150000 -29.8550000 -24.0210000 -12.1490000
 -29.2100000 -23.5770000 -11.7630000 -32.5190000 -28.6380000 -16.5120000
 -32.6730000 -28.1810000 -15.6850000 -31.8080000 -29.2480000 -16.3200000
 -32.4480000 -28.6580000 -16.3820000 -22.3580000 -22.4800000 -18.3260000
 -23.2200000 -22.1510000 -18.5820000 -22.4550000 -23.4310000 -18.3270000
 -22.4810000 -22.5590000 -18.3590000 -35.6320000 -22.3820000 -11.5490000
 -35.5940000 -21.4890000 -11.8930000 -36.4320000 -22.4030000 -11.0230000
 -35.7300000 -22.2700000 -11.5260000 -30.9210000 -20.5920000 -14.8600000
 -31.7200000 -21.1190000 -14.8500000 -30.5780000 -20.6950000 -15.7470000
 -30.9800000 -20.6730000 -14.9720000 -27.0140000 -25.6070000 -12.3930000
 -27.4400000 -26.2140000 -12.9970000 -27.6760000 -24.9400000 -12.2150000
 -27.1530000 -25.5990000 -12.4470000 -20.1420000 -30.6840000 -11.2990000
 -20.9210000 -30.5740000 -10.7540000 -19.7980000 -29.7980000 -11.4080000
 -20.1980000 -30.5570000 -11.2430000 -28.8110000 -27.3680000  -3.8670000
 -28.9400000 -28.2340000  -3.4780000 -28.3680000 -27.5430000  -4.6980000
 -28.7710000 -27.5010000  -3.9240000 -25.9350000 -26.4160000 -16.8480000
 -25.1650000 -26.3950000 -16.2810000 -25.6160000 -26.7840000 -17.6720000
 -25.7960000 -26.4600000 -16.8810000 -20.2000000 -26.7800000 -15.1180000
 -20.5650000 -26.1380000 -14.5080000 -20.9650000 -27.2010000 -15.5100000
 -20.3440000 -26.7510000 -15.0900000 -22.2170000 -25.1790000 -18.1010000
 -22.1750000 -25.3130000 -19.0480000 -21.3320000 -24.9120000 -17.8580000
 -22.0980000 -25.1620000 -18.1910000 -25.2240000 -23.0120000 -11.5120000
 -25.0480000 -22.1620000 -11.9150000 -25.9840000 -23.3490000 -11.9860000
 -25.2980000 -22.9460000 -11.6240000 -25.4350000 -19.6870000 -10.2600000
 -24.8480000 -18.9500000 -10.4350000 -26.2160000 -19.5010000 -10.7790000
 -25.4590000 -19.5690000 -10.3490000 -26.6450000 -31.5470000  -2.7230000
 -26.0600000 -31.2340000  -2.0340000 -27.3710000 -30.9220000  -2.7230000
 -26.6630000 -31.4280000  -2.6350000 -29.0260000 -31.0460000 -13.1910000
 -29.8510000 -31.0650000 -13.6760000 -29.2760000 -31.2320000 -12.2860000
 -29.1630000 -31.0720000 -13.1370000 -31.9110000 -21.3810000  -8.5740000
 -32.1730000 -21.7560000  -7.7330000 -31.1800000 -21.9260000  -8.8630000
 -31.8510000 -21.4990000  -8.5040000 -33.6730000 -23.1880000  -9.8590000
 -34.3970000 -22.8850000 -10.4070000 -33.0800000 -22.4380000  -9.8110000
 -33.6900000 -23.0530000  -9.9230000 -34.2010000 -29.4240000 -18.5210000
 -34.8030000 -28.6870000 -18.6170000 -33.5710000 -29.1350000 -17.8600000
 -34.1970000 -29.2930000 -18.4490000 -29.7730000 -20.9620000 -17.2280000
 -29.3150000 -21.7840000 -17.0560000 -29.0750000 -20.3220000 -17.3670000
 -29.6250000 -20.9850000 -17.2240000 -31.0500000 -30.4710000  -8.2460000
 -30.1690000 -30.1800000  -8.0140000 -30.9650000 -30.8050000  -9.1390000
 -30.9260000 -30.4760000  -8.3310000 -35.0860000 -22.7130000   0.4250000
 -34.6030000 -22.1530000  -0.1820000 -35.5280000 -23.3490000  -0.1360000
 -35.0800000 -22.7220000   0.2760000 -31.4600000 -20.9770000  -0.7770000
 -30.8850000 -21.0640000  -0.0160000 -31.5010000 -20.0350000  -0.9390000
 -31.3910000 -20.8680000  -0.7010000 -21.6250000 -26.6440000  -7.9400000
 -21.1850000 -26.1370000  -7.2570000 -22.2960000 -27.1410000  -7.4740000
 -21.6530000 -26.6430000  -7.7930000 -20.4090000 -24.8760000  -5.7120000
 -21.1230000 -24.2710000  -5.9110000 -19.6930000 -24.3130000  -5.4150000
 -20.4090000 -24.7270000  -5.6990000 -31.1050000 -27.1230000  -0.8760000
 -31.2620000 -28.0670000  -0.9120000 -31.1930000 -26.8310000  -1.7830000
 -31.1370000 -27.2070000  -0.9970000 -26.8970000 -23.8150000 -16.7740000
 -26.5930000 -24.7080000 -16.6180000 -26.3700000 -23.2750000 -16.1850000
 -26.7910000 -23.8600000 -16.6790000 -23.7870000 -28.1420000  -7.0200000
 -24.6620000 -28.3990000  -7.3100000 -23.4350000 -28.9250000  -6.5960000
 -23.8550000 -28.2750000  -7.0030000 -34.0780000 -21.2260000  -1.8620000
 -34.3300000 -20.3220000  -1.6710000 -33.1730000 -21.2910000  -1.5590000
 -33.9940000 -21.1180000  -1.7990000 -20.7650000 -22.9030000 -15.2210000
 -20.6430000 -22.0280000 -15.5890000 -20.5550000 -23.4960000 -15.9420000
 -20.7220000 -22.8660000 -15.3610000 -26.3160000 -23.6180000  -2.0870000
 -25.7350000 -23.7820000  -1.3460000 -26.9100000 -22.9320000  -1.7790000
 -26.3180000 -23.5510000  -1.9530000 -30.0140000 -23.1550000  -9.3480000
 -30.4940000 -23.9620000  -9.1710000 -29.2850000 -23.1680000  -8.7290000
 -29.9820000 -23.2600000  -9.2460000 -16.6020000 -30.2370000 -10.9640000
 -16.5880000 -30.5500000 -10.0590000 -16.6520000 -29.2840000 -10.8870000
 -16.6060000 -30.1550000 -10.8380000 -30.4710000 -30.6530000  -4.9610000
 -31.3160000 -30.9730000  -4.6440000 -29.9980000 -31.4440000  -5.2200000
 -30.5200000 -30.7950000  -4.9530000 -33.5450000 -25.4670000  -0.6270000
 -32.7330000 -25.9550000  -0.7690000 -33.8140000 -25.1900000  -1.5030000
 -33.4760000 -25.4940000  -0.7580000 -34.6370000 -20.8950000 -15.5040000
 -35.2190000 -20.3970000 -14.9310000 -34.4080000 -20.2840000 -16.2040000
 -34.6820000 -20.7530000 -15.5200000 -21.0370000 -29.3360000 -17.0800000
 -21.4940000 -29.5770000 -16.2740000 -20.1110000 -29.4760000 -16.8810000
 -20.9770000 -29.3850000 -16.9510000 -31.2820000 -26.4280000  -3.5990000
 -30.4030000 -26.8000000  -3.6510000 -31.8200000 -27.0080000  -4.1360000
 -31.2380000 -26.5490000  -3.6740000 -22.2930000 -22.7160000  -5.2420000
 -22.6450000 -22.8190000  -4.3570000 -22.1450000 -21.7740000  -5.3320000
 -22.3200000 -22.6090000  -5.1400000 -20.1560000 -20.9490000  -3.3630000
 -19.9580000 -21.3450000  -2.5130000 -20.8280000 -20.2940000  -3.1720000
 -20.2170000 -20.9160000  -3.2300000 -24.8380000 -28.1700000  -3.9500000
 -25.3950000 -28.5650000  -4.6220000 -25.4150000 -27.5600000  -3.4900000
 -24.9830000 -28.1420000  -3.9770000 -20.9240000 -28.9090000  -0.7560000
 -21.7470000 -28.5690000  -1.1050000 -21.0690000 -28.9650000   0.1890000
 -21.0470000 -28.8730000  -0.6800000 -34.0000000 -28.5920000  -6.3240000
 -34.3760000 -28.7190000  -5.4540000 -34.5630000 -29.1030000  -6.9060000
 -34.1190000 -28.6730000  -6.2870000 -24.9920000 -27.0820000 -10.8690000
 -24.4470000 -26.5810000 -10.2620000 -25.6860000 -26.4750000 -11.1260000
 -25.0110000 -26.9410000 -10.8240000 -22.2880000 -29.8360000 -14.6760000
 -22.3320000 -29.2170000 -13.9460000 -22.6550000 -30.6470000 -14.3240000
 -22.3400000 -29.8600000 -14.5370000 -27.5380000 -28.9720000 -14.1970000
 -28.2100000 -29.6530000 -14.1670000 -27.4600000 -28.7550000 -15.1260000
 -27.6150000 -29.0310000 -14.3120000 -26.3530000 -19.9930000  -5.0790000
 -26.9010000 -20.0620000  -5.8590000 -25.9880000 -20.8700000  -4.9630000
 -26.3750000 -20.1140000  -5.1640000 -31.9180000 -29.9980000  -1.1280000
 -32.0340000 -30.2820000  -2.0350000 -32.8100000 -29.8950000  -0.7950000
 -32.0480000 -30.0210000  -1.2020000 -23.5230000 -28.8260000  -1.5680000
 -24.2150000 -29.4660000  -1.4000000 -23.7310000 -28.4700000  -2.4310000
 -23.6380000 -28.8630000  -1.6570000 -35.5720000 -25.2800000 -12.2290000
 -34.8930000 -25.5590000 -11.6150000 -35.4750000 -24.3300000 -12.2780000
 -35.4730000 -25.1930000 -12.1560000 -30.1590000 -26.5430000 -17.1420000
 -30.5410000 -26.8530000 -17.9630000 -29.9190000 -25.6320000 -17.3170000
 -30.1760000 -26.4660000 -17.2690000 -27.6450000 -22.8680000  -7.8400000
 -27.7100000 -23.3880000  -7.0380000 -27.1010000 -22.1190000  -7.5970000
 -27.5850000 -22.8390000  -7.7060000 -22.1460000 -23.9720000 -11.2210000
 -23.0610000 -23.9620000 -11.5040000 -22.0240000 -24.8400000 -10.8360000
 -22.2480000 -24.0820000 -11.2080000 -32.5240000 -27.6550000 -14.1370000
 -31.7010000 -27.1690000 -14.1750000 -32.4730000 -28.1500000 -13.3200000
 -32.4120000 -27.6560000 -14.0380000 -35.8330000 -19.7800000 -10.0610000
 -36.3750000 -19.3570000  -9.3940000 -34.9350000 -19.5830000  -9.7990000
 -35.7890000 -19.7000000  -9.9420000 -30.2300000 -26.0180000 -14.1350000
 -30.7530000 -25.3150000 -13.7490000 -30.2170000 -25.8220000 -15.0710000
 -30.2940000 -25.9030000 -14.2050000 -23.1860000 -31.1510000 -17.9710000
 -22.7090000 -31.5050000 -18.7200000 -22.6850000 -30.3800000 -17.7080000
 -23.0610000 -31.0970000 -18.0330000 -34.2920000 -25.7150000  -3.1410000
 -34.3300000 -25.3980000  -4.0430000 -35.1650000 -26.0740000  -2.9760000
 -34.4090000 -25.7210000  -3.2350000 -30.3850000 -23.9750000  -4.5660000
 -31.1670000 -23.5690000  -4.9350000 -30.6720000 -24.8460000  -4.2930000
 -30.5210000 -24.0350000  -4.5780000 -31.3590000 -28.0180000  -6.0870000
 -31.0340000 -28.8210000  -5.6800000 -32.2270000 -28.2500000  -6.4130000
 -31.4280000 -28.1500000  -6.0770000 -35.7420000 -27.0850000  -0.1180000
 -34.9400000 -26.5740000  -0.2280000 -36.1920000 -26.6660000   0.6160000
 -35.6970000 -26.9650000  -0.0380000 -25.2460000 -29.9360000 -10.8580000
 -24.7480000 -30.1430000 -11.6490000 -25.0620000 -29.0110000 -10.6940000
 -25.1590000 -29.8440000 -10.9380000 -20.5580000 -19.1650000  -8.7900000
 -20.7050000 -20.1070000  -8.7090000 -19.9050000 -18.9660000  -8.1190000
 -20.4940000 -19.2600000  -8.6940000 -19.2250000 -22.8860000 -10.0040000
 -20.0700000 -22.4730000  -9.8200000 -19.3570000 -23.8080000  -9.7860000
 -19.3500000 -22.9510000  -9.9530000 -27.9250000 -29.3400000 -10.2350000
 -28.3320000 -28.5800000 -10.6510000 -27.0640000 -29.4050000 -10.6450000
 -27.8670000 -29.2510000 -10.3410000 -23.3880000 -28.1010000 -12.7530000
 -22.7150000 -27.6900000 -12.2130000 -24.1980000 -27.6550000 -12.5070000
 -23.4050000 -27.9910000 -12.6530000 -35.2350000 -27.6100000  -9.2500000
 -34.2780000 -27.6260000  -9.2690000 -35.4800000 -28.4240000  -8.8100000
 -35.1430000 -27.7160000  -9.1960000 -19.7660000 -28.6720000  -7.7670000
 -20.1550000 -29.1460000  -7.0310000 -20.3020000 -27.8830000  -7.8530000
 -19.8850000 -28.6320000  -7.6840000 -27.8570000 -24.2470000  -5.4020000
 -27.4650000 -23.4260000  -5.1060000 -28.7700000 -24.1920000  -5.1200000
 -27.9230000 -24.1350000  -5.3280000 -22.6340000 -30.9640000  -6.2530000
 -22.8980000 -31.6150000  -5.6030000 -22.4150000 -31.4760000  -7.0310000
 -22.6400000 -31.1120000  -6.2690000 -31.8870000 -29.1700000 -12.0280000
 -31.6990000 -29.9220000 -12.5900000 -31.0320000 -28.7800000 -11.8580000
 -31.7550000 -29.2160000 -12.0780000 -29.4370000 -23.9630000 -17.7450000
 -28.5930000 -24.0010000 -17.2940000 -29.2150000 -23.7580000 -18.6530000
 -29.3000000 -23.9420000 -17.8030000 -32.3870000 -28.1730000  -9.4760000
 -32.1300000 -28.5910000 -10.2980000 -32.3030000 -28.8650000  -8.8200000
 -32.3420000 -28.3150000  -9.4970000 -25.0750000 -23.7180000  -9.0170000
 -24.9760000 -23.4710000  -9.9370000 -25.9280000 -23.3680000  -8.7650000
 -25.1710000 -23.6420000  -9.1020000 -27.6850000 -19.3040000 -11.6780000
 -27.8690000 -20.1310000 -12.1240000 -27.9960000 -18.6310000 -12.2830000
 -27.7480000 -19.3240000 -11.8130000 -26.0960000 -20.0690000 -18.5880000
 -25.9390000 -19.2300000 -19.0210000 -25.8350000 -19.9220000 -17.6790000
 -26.0420000 -19.9430000 -18.5270000 -23.9860000 -21.2920000  -8.4780000
 -24.5300000 -20.6920000  -8.9890000 -24.3780000 -22.1530000  -8.6240000
 -24.1050000 -21.3250000  -8.5620000 -20.2110000 -29.8830000  -4.8550000
 -21.1070000 -30.2080000  -4.9420000 -20.3110000 -28.9880000  -4.5300000
 -20.3390000 -29.8100000  -4.8240000 -29.8950000 -18.9240000  -9.5050000
 -29.9280000 -19.6110000  -8.8400000 -29.4180000 -19.3190000 -10.2350000
 -29.8390000 -19.0620000  -9.5130000 -28.0150000 -28.1960000 -16.8170000
 -27.2850000 -27.5760000 -16.8280000 -28.7970000 -27.6450000 -16.8480000
 -28.0220000 -28.0460000 -16.8230000 -28.3830000 -30.8150000  -7.7010000
 -28.8320000 -31.5690000  -7.3190000 -27.6610000 -31.1950000  -8.2010000
 -28.3480000 -30.9600000  -7.7160000 -26.8480000 -26.6910000  -5.9890000
 -27.1250000 -25.8670000  -5.5870000 -25.8970000 -26.7050000  -5.8800000
 -26.7610000 -26.5870000  -5.9240000 -27.4920000 -19.4680000  -7.7400000
 -26.7030000 -18.9300000  -7.7940000 -28.0920000 -19.0760000  -8.3740000
 -27.4680000 -19.3490000  -7.8280000 -35.4630000 -28.8430000  -3.8520000
 -36.1420000 -28.2050000  -3.6320000 -35.8720000 -29.6920000  -3.6890000
 -35.6030000 -28.8700000  -3.8030000 -24.5030000 -20.8380000 -12.8880000
 -24.8700000 -20.2570000 -12.2230000 -23.6110000 -20.5150000 -13.0220000
 -24.4350000 -20.7220000 -12.8200000 -26.3970000 -28.4010000  -7.9030000
 -26.6650000 -27.7580000  -7.2460000 -27.1960000 -28.5830000  -8.3990000
 -26.5340000 -28.3420000  -7.8830000 -26.4200000 -30.0670000  -5.3410000
 -26.5840000 -29.7580000  -6.2320000 -27.2820000 -30.3310000  -5.0180000
 -26.5510000 -30.0610000  -5.4130000 -33.6230000 -25.1470000 -16.9110000
 -33.5370000 -25.1980000 -17.8630000 -34.1770000 -24.3790000 -16.7620000
 -33.6830000 -25.0550000 -17.0140000 -26.4880000 -26.4050000  -2.8050000
 -27.3060000 -26.5600000  -3.2760000 -26.4400000 -25.4520000  -2.7160000
 -26.5860000 -26.3030000  -2.8540000 -20.6650000 -20.4310000  -6.0050000
 -20.3840000 -20.5280000  -5.0950000 -21.4460000 -19.8800000  -5.9560000
 -20.7300000 -20.3730000  -5.8820000 -33.0130000 -25.7690000 -10.9460000
 -33.1010000 -24.9890000 -10.3970000 -32.9420000 -26.4930000 -10.3230000
 -33.0160000 -25.7620000 -10.7960000 -32.9120000 -30.6280000  -3.7620000
 -33.0030000 -30.7480000  -4.7070000 -33.6350000 -30.0500000  -3.5240000
 -33.0160000 -30.5690000  -3.8530000 -20.7440000 -21.6530000 -12.5700000
 -20.6740000 -22.2820000 -11.8530000 -20.6780000 -22.1850000 -13.3630000
 -20.7270000 -21.8010000 -12.5800000 -31.2860000 -31.0660000 -14.4240000
 -30.9130000 -31.1310000 -15.3030000 -32.1910000 -31.3620000 -14.5250000
 -31.3550000 -31.1130000 -14.5490000 -31.5870000 -23.9090000 -15.9900000
 -32.3200000 -24.3980000 -16.3660000 -30.9280000 -23.8960000 -16.6820000
 -31.5970000 -23.9700000 -16.1260000 -28.0960000 -30.4980000 -18.8000000
 -28.1150000 -29.8480000 -18.0980000 -27.7410000 -31.2860000 -18.3880000
 -28.0530000 -30.5150000 -18.6580000 -32.7260000 -23.2000000  -6.0210000
 -33.2960000 -22.5130000  -5.6740000 -33.1780000 -24.0160000  -5.8070000
 -32.8570000 -23.2160000  -5.9490000 -26.1350000 -21.6190000 -14.9300000
 -26.8200000 -21.6910000 -14.2650000 -25.3360000 -21.4410000 -14.4330000
 -26.1200000 -21.6060000 -14.7810000 -25.1250000 -22.6470000 -18.6830000
 -25.5250000 -21.7800000 -18.6330000 -25.6010000 -23.1680000 -18.0360000
 -25.2370000 -22.6020000 -18.5940000 -31.7460000 -24.3260000 -12.8270000
 -32.3820000 -24.7810000 -12.2760000 -32.2350000 -23.5920000 -13.2000000
 -31.8890000 -24.2900000 -12.8040000 -25.8680000 -22.6550000  -4.6220000
 -26.0710000 -22.9650000  -3.7400000 -25.3550000 -23.3630000  -5.0120000
 -25.8280000 -22.7860000  -4.5590000 -23.2230000 -25.0530000  -1.9750000
 -23.8630000 -25.5860000  -1.5030000 -23.2610000 -25.3760000  -2.8760000
 -23.3100000 -25.1630000  -2.0300000 -29.4560000 -22.6850000  -1.8400000
 -29.8430000 -23.0500000  -2.6360000 -30.1050000 -22.0560000  -1.5250000
 -29.5900000 -22.6530000  -1.9010000 -20.5560000 -27.2160000  -4.1580000
 -21.4470000 -27.0000000  -3.8800000 -20.2800000 -26.4640000  -4.6800000
 -20.6350000 -27.0920000  -4.1890000 -21.4880000 -25.1940000 -13.7260000
 -21.4660000 -25.0780000 -12.7760000 -21.3150000 -24.3210000 -14.0770000
 -21.4630000 -25.0670000 -13.6490000 -22.1130000 -19.2540000 -13.4190000
 -22.3780000 -19.2900000 -14.3380000 -21.4910000 -19.9750000 -13.3200000
 -22.0670000 -19.3510000 -13.5240000 -24.9390000 -19.2580000 -15.9080000
 -25.4550000 -19.9430000 -15.4820000 -25.4220000 -18.4510000 -15.7340000
 -25.0670000 -19.2430000 -15.8310000 -25.2030000 -17.7150000  -7.6070000
 -24.4270000 -17.8710000  -8.1460000 -25.2330000 -16.7640000  -7.5010000
 -25.1070000 -17.6130000  -7.6620000 -28.6330000 -21.3030000 -13.3780000
 -28.8700000 -22.1160000 -12.9340000 -29.4370000 -21.0250000 -13.8150000
 -28.7650000 -21.3710000 -13.3770000 -23.4390000 -21.8830000  -2.0710000
 -23.1700000 -22.7870000  -1.9110000 -24.3910000 -21.8960000  -1.9700000
 -23.5260000 -22.0000000  -2.0370000 -23.1300000 -26.1780000  -4.3740000
 -23.7390000 -26.9130000  -4.3180000 -23.5610000 -25.5530000  -4.9570000
 -23.2620000 -26.1920000  -4.4410000 -34.0320000 -25.5890000  -5.9490000
 -34.4920000 -25.2450000  -6.7140000 -33.9510000 -26.5280000  -6.1210000
 -34.0800000 -25.6650000  -6.0690000 -35.8360000 -27.9480000 -13.7640000
 -34.8800000 -27.9160000 -13.7370000 -36.1070000 -27.0310000 -13.7260000
 -35.7470000 -27.8270000 -13.7560000 -25.1670000 -30.3970000 -13.4090000
 -24.5470000 -29.9530000 -13.9880000 -25.9780000 -29.8930000 -13.4940000
 -25.1910000 -30.2750000 -13.4940000 -32.8750000 -22.2610000 -14.1770000
 -33.5760000 -21.8630000 -14.6940000 -32.4430000 -22.8640000 -14.7830000
 -32.9090000 -22.2870000 -14.3210000 -24.2740000 -24.3180000  -6.3550000
 -24.4470000 -24.3950000  -7.2930000 -23.4910000 -23.7710000  -6.3000000
 -24.1960000 -24.2580000  -6.4680000 -29.4560000 -27.9350000 -12.0360000
 -28.9420000 -28.5340000 -12.5760000 -29.7300000 -27.2440000 -12.6400000
 -29.4260000 -27.9230000 -12.1820000 -22.4280000 -19.3670000  -2.7450000
 -22.0200000 -19.1950000  -1.8970000 -22.6970000 -20.2840000  -2.7000000
 -22.4100000 -19.4620000  -2.6310000 -19.7620000 -20.0750000 -15.7470000
 -19.1740000 -20.2520000 -16.4820000 -20.3520000 -19.3950000 -16.0710000
 -19.7620000 -20.0110000 -15.8830000 -19.9210000 -21.7200000  -0.7520000
 -20.6940000 -21.6890000  -0.1880000 -19.3040000 -21.1100000  -0.3460000
 -19.9410000 -21.6380000  -0.6270000 -25.0200000 -26.5930000  -0.6830000
 -25.8310000 -26.5550000  -1.1900000 -24.6560000 -27.4560000  -0.8780000
 -25.0780000 -26.6980000  -0.7730000 -35.3940000 -24.4530000  -7.7430000
 -35.1350000 -23.7600000  -8.3510000 -36.2670000 -24.1940000  -7.4440000
 -35.4720000 -24.3310000  -7.7830000 -21.7070000 -26.8630000 -10.7620000
 -20.8530000 -27.2050000 -11.0320000 -21.6850000 -26.8920000  -9.8060000
 -21.5950000 -26.9110000 -10.6750000 -28.7760000 -29.9520000  -2.8570000
 -29.5300000 -30.2820000  -3.3460000 -28.9780000 -30.1500000  -1.9430000
 -28.8980000 -30.0200000  -2.8030000 -25.2260000 -30.6300000  -0.7880000
 -26.0100000 -30.6680000  -0.2400000 -24.5900000 -31.1800000  -0.3340000
 -25.2450000 -30.7050000  -0.6600000 -23.5600000 -26.1920000 -15.5470000
 -23.1650000 -25.8510000 -14.7450000 -23.0700000 -25.7730000 -16.2540000
 -23.4470000 -26.0950000 -15.5350000 -23.3660000 -19.8360000  -6.1100000
 -23.8400000 -19.0030000  -6.1170000 -23.8970000 -20.4170000  -6.6540000
 -23.4950000 -19.8040000  -6.1800000 -33.8550000 -20.9800000 -23.8660000
 -34.8100000 -21.0470000 -23.8980000 -33.6670000 -20.6720000 -22.9800000
 -33.9530000 -20.9480000 -23.7570000 -29.0900000 -23.5350000 -30.7030000
 -29.2640000 -23.3740000 -29.7750000 -29.8550000 -24.0210000 -31.0090000
 -29.2100000 -23.5770000 -30.6230000 -32.5190000 -28.6380000 -35.3720000
 -32.6730000 -28.1810000 -34.5450000 -31.8080000 -29.2480000 -35.1800000
 -32.4480000 -28.6580000 -35.2420000 -22.3580000 -22.4800000 -37.1860000
 -23.2200000 -22.1510000 -37.4420000 -22.4550000 -23.4310000 -37.1870000
 -22.4810000 -22.5590000 -37.2190000 -35.6320000 -22.3820000 -30.4090000
 -35.5940000 -21.4890000 -30.7530000 -36.4320000 -22.4030000 -29.8830000
 -35.7300000 -22.2700000 -30.3860000 -30.9210000 -20.5920000 -33.7200000
 -31.7200000 -21.1190000 -33.7100000 -30.5780000 -20.6950000 -34.6070000
 -30.9800000 -20.6730000 -33.8320000 -27.0140000 -25.6070000 -31.2530000
 -27.4400000 -26.2140000 -31.8570000 -27.6760000 -24.9400000 -31.0750000
 -27.1530000 -25.5990000 -31.3070000 -20.1420000 -30.6840000 -30.1590000
 -20.9210000 -30.5740000 -29.6140000 -19.7980000 -29.7980000 -30.2680000
 -20.1980000 -30.5570000 -30.1030000 -28.8110000 -27.3680000 -22.7270000
 -28.9400000 -28.2340000 -22.3380000 -28.3680000 -27.5430000 -23.5580000
 -28.7710000 -27.5010000 -22.7840000 -25.9350000 -26.4160000 -35.7080000
 -25.1650000 -26.3950000 -35.1410000 -25.6160000 -26.7840000 -36.5320000
 -25.7960000 -26.4600000 -35.7410000 -20.2000000 -26.7800000 -33.9780000
 -20.5650000 -26.1380000 -33.3680000 -20.9650000 -27.2010000 -34.3700000
 -20.3440000 -26.7510000 -33.9500000 -22.2170000 -25.1790000 -36.9610000
 -22.1750000 -25.3130000 -37.9080000 -21.3320000 -24.9120000 -36.7180000
 -22.0980000 -25.1620000 -37.0510000 -25.2240000 -23.0120000 -30.3720000
 -25.0480000 -22.1620000 -30.7750000 -25.9840000 -23.3490000 -30.8460000
 -25.2980000 -22.9460000 -30.4840000 -25.4350000 -19.6870000 -29.1200000
 -24.8480000 -18.9500000 -29.2950000 -26.2160000 -19.5010000 -29.6390000
 -25.4590000 -19.5690000 -29.2090000 -26.6450000 -31.5470000 -21.5830000
 -26.0600000 -31.2340000 -20.8940000 -27.3710000 -30.9220000 -21.5830000
 -26.6630000 -31.4280000 -21.4950000 -29.0260000 -31.0460000 -32.0510000
 -29.8510000 -31.0650000 -32.5360000 -29.2760000 -31.2320000 -31.1460000
 -29.1630000 -31.0720000 -31.9970000 -31.9110000 -21.3810000 -27.4340000
 -32.1730000 -21.7560000 -26.5930000 -31.1800000 -21.9260000 -27.7230000
 -31.8510000 -21.4990000 -27.3640000 -33.6730000 -23.1880000 -28.7190000
 -34.3970000 -22.8850000 -29.2670000 -33.0800000 -22.4380000 -28.6710000
 -33.6900000 -23.0530000 -28.7830000 -34.2010000 -29.4240000 -37.3810000
 -34.8030000 -28.6870000 -37.4770000 -33.5710000 -29.1350000 -36.7200000
 -34.1970000 -29.2930000 -37.3090000 -29.7730000 -20.9620000 -36.0880000
 -29.3150000 -21.7840000 -35.9160000 -29.0750000 -20.3220000 -36.2270000
 -29.6250000 -20.9850000 -36.0840000 -31.0500000 -30.4710000 -27.1060000
 -30.1690000 -30.1800000 -26.8740000 -30.9650000 -30.8050000 -27.9990000
 -30.9260000 -30.4760000 -27.1910000 -35.0860000 -22.7130000 -18.4350000
 -34.6030000 -22.1530000 -19.0420000 -35.5280000 -23.3490000 -18.9960000
 -35.0800000 -22.7220000 -18.5840000 -31.4600000 -20.9770000 -19.6370000
 -30.8850000 -21.0640000 -18.8760000 -31.5010000 -20.0350000 -19.7990000
 -31.3910000 -20.8680000 -19.5610000 -21.6250000 -26.6440000 -26.8000000
 -21.1850000 -26.1370000 -26.1170000 -22.2960000 -27.1410000 -26.3340000
 -21.6530000 -26.6430000 -26.6530000 -20.4090000 -24.8760000 -24.5720000
 -21.1230000 -24.2710000 -24.7710000 -19.6930000 -24.3130000 -24.2750000
 -20.4090000 -24.7270000 -24.5590000 -31.1050000 -27.1230000 -19.7360000
 -31.2620000 -28.0670000 -19.7720000 -31.1930000 -26.8310000 -20.6430000
 -31.1370000 -27.2070000 -19.8570000 -26.8970000 -23.8150000 -35.6340000
 -26.5930000 -24.7080000 -35.4780000 -26.3700000 -23.2750000 -35.0450000
 -26.7910000 -23.8600000 -35.5390000 -23.7870000 -28.1420000 -25.8800000
 -24.6620000 -28.3990000 -26.1700000 -23.4350000 -28.9250000 -25.4560000
 -23.8550000 -28.2750000 -25.8630000 -34.0780000 -21.2260000 -20.7220000
 -34.3300000 -20.3220000 -20.5310000 -33.1730000 -21.2910000 -20.4190000
 -33.9940000 -21.1180000 -20.6590000 -20.7650000 -22.9030000 -34.0810000
 -20.6430000 -22.0280000 -34.4490000 -20.5550000 -23.4960000 -34.8020000
 -20.7220000 -22.8660000 -34.2210000 -26.3160000 -23.6180000 -20.9470000
 -25.7350000 -23.7820000 -20.2060000 -26.9100000 -22.9320000 -20.6390000
 -26.3180000 -23.5510000 -20.8130000 -30.0140000 -23.1550000 -28.2080000
 -30.4940000 -23.9620000 -28.0310000 -29.2850000 -23.1680000 -27.5890000
 -29.9820000 -23.2600000 -28.1060000 -16.6020000 -30.2370000 -29.8240000
 -16.5880000 -30.5500000 -28.9190000 -16.6520000 -29.2840000 -29.7470000
 -16.6060000 -30.1550000 -29.6980000 -30.4710000 -30.6530000 -23.8210000
 -31.3160000 -30.9730000 -23.5040000 -29.9980000 -31.4440000 -24.0800000
 -30.5200000 -30.7950000 -23.8130000 -33.5450000 -25.4670000 -19.4870000
 -32.7330000 -25.9550000 -19.6290000 -33.8140000 -25.1900000 -20.3630000
 -33.4760000 -25.4940000 -19.6180000 -34.6370000 -20.8950000 -34.3640000
 -35.2190000 -20.3970000 -33.7910000 -34.4080000 -20.2840000 -35.0640000
 -34.6820000 -20.7530000 -34.3800000 -21.0370000 -29.3360000 -35.9400000
 -21.4940000 -29.5770000 -35.1340000 -20.1110000 -29.4760000 -35.7410000
 -20.9770000 -29.3850000 -35.8110000 -31.2820000 -26.4280000 -22.4590000
 -30.4030000 -26.8000000 -22.5110000 -31.8200000 -27.0080000 -22.9960000
 -31.2380000 -26.5490000 -22.5340000 -22.2930000 -22.7160000 -24.1020000
 -22.6450000 -22.8190000 -23.2170000 -22.1450000 -21.7740000 -24.1920000
 -22.3200000 -22.6090000 -24.0000000 -20.1560000 -20.9490000 -22.2230000
 -19.9580000 -21.3450000 -21.3730000 -20.8280000 -20.2940000 -22.0320000
 -20.2170000 -20.9160000 -22.0900000 -24.8380000 -28.1700000 -22.8100000
 -25.3950000 -28.5650000 -23.4820000 -25.4150000 -27.5600000 -22.3500000
 -24.9830000 -28.1420000 -22.8370000 -20.9240000 -28.9090000 -19.6160000
 -21.7470000 -28.5690000 -19.9650000 -21.0690000 -28.9650000 -18.6710000
 -21.0470000 -28.8730000 -19.5400000 -34.0000000 -28.5920000 -25.1840000
 -34.3760000 -28.7190000 -24.3140000 -34.5630000 -29.1030000 -25.7660000
 -34.1190000 -28.6730000 -25.1470000 -24.9920000 -27.0820000 -29.7290000
 -24.4470000 -26.5810000 -29.1220000 -25.6860000 -26.4750000 -29.9860000
 -25.0110000 -26.9410000 -29.6840000 -22.2880000 -29.8360000 -33.5360000
 -22.3320000 -29.2170000 -32.8060000 -22.6550000 -30.6470000 -33.1840000
 -22.3400000 -29.8600000 -33.3970000 -27.5380000 -28.9720000 -33.0570000
 -28.2100000 -29.6530000 -33.0270000 -27.4600000 -28.7550000 -33.9860000
 -27.6150000 -29.0310000 -33.1720000 -26.3530000 -19.9930000 -23.9390000
 -26.9010000 -20.0620000 -24.7190000 -25.9880000 -20.8700000 -23.8230000
 -26.3750000 -20.1140000 -24.0240000 -31.9180000 -29.9980000 -19.9880000
 -32.0340000 -30.2820000 -20.8950000 -32.8100000 -29.8950000 -19.6550000
 -32.0480000 -30.0210000 -20.0620000 -31.4880000 -25.4800000 -27.1100000
 -31.5280000 -26.4350000 -27.1470000 -31.9430000 -25.2510000 -26.3000000
 -31.5510000 -25.5720000 -27.0110000 -23.5230000 -28.8260000 -20.4280000
 -24.2150000 -29.4660000 -20.2600000 -23.7310000 -28.4700000 -21.2910000
 -23.6380000 -28.8630000 -20.5170000 -35.5720000 -25.2800000 -31.0890000
 -34.8930000 -25.5590000 -30.4750000 -35.4750000 -24.3300000 -31.1380000
 -35.4730000 -25.1930000 -31.0160000 -30.1590000 -26.5430000 -36.0020000
 -30.5410000 -26.8530000 -36.8230000 -29.9190000 -25.6320000 -36.1770000
 -30.1760000 -26.4660000 -36.1290000 -27.6450000 -22.8680000 -26.7000000
 -27.7100000 -23.3880000 -25.8980000 -27.1010000 -22.1190000 -26.4570000
 -27.5850000 -22.8390000 -26.5660000 -22.1460000 -23.9720000 -30.0810000
 -23.0610000 -23.9620000 -30.3640000 -22.0240000 -24.8400000 -29.6960000
 -22.2480000 -24.0820000 -30.0680000 -32.5240000 -27.6550000 -32.9970000
 -31.7010000 -27.1690000 -33.0350000 -32.4730000 -28.1500000 -32.1800000
 -32.4120000 -27.6560000 -32.8980000 -35.8330000 -19.7800000 -28.9210000
 -36.3750000 -19.3570000 -28.2540000 -34.9350000 -19.5830000 -28.6590000
 -35.7890000 -19.7000000 -28.8020000 -30.2300000 -26.0180000 -32.9950000
 -30.7530000 -25.3150000 -32.6090000 -30.2170000 -25.8220000 -33.9310000
 -30.2940000 -25.9030000 -33.0650000 -23.1860000 -31.1510000 -36.8310000
 -22.7090000 -31.5050000 -37.5800000 -22.6850000 -30.3800000 -36.5680000
 -23.0610000 -31.0970000 -36.8930000 -34.2920000 -25.7150000 -22.0010000
 -34.3300000 -25.3980000 -22.9030000 -35.1650000 -26.0740000 -21.8360000
 -34.4090000 -25.7210000 -22.0950000 -30.3850000 -23.9750000 -23.4260000
 -31.1670000 -23.5690000 -23.7950000 -30.6720000 -24.8460000 -23.1530000
 -30.5210000 -24.0350000 -23.4380000 -31.3590000 -28.0180000 -24.9470000
 -31.0340000 -28.8210000 -24.5400000 -32.2270000 -28.2500000 -25.2730000
 -31.4280000 -28.1500000 -24.9370000 -35.7420000 -27.0850000 -18.9780000
 -34.9400000 -26.5740000 -19.0880000 -36.1920000 -26.6660000 -18.2440000
 -35.6970000 -26.9650000 -18.8980000 -25.2460000 -29.9360000 -29.7180000
 -24.7480000 -30.1430000 -30.5090000 -25.0620000 -29.0110000 -29.5540000
 -25.1590000 -29.8440000 -29.7980000 -20.5580000 -19.1650000 -27.6500000
 -20.7050000 -20.1070000 -27.5690000 -19.9050000 -18.9660000 -26.9790000
 -20.4940000 -19.2600000 -27.5540000 -19.2250000 -22.8860000 -28.8640000
 -20.0700000 -22.4730000 -28.6800000 -19.3570000 -23.8080000 -28.6460000
 -19.3500000 -22.9510000 -28.8130000 -27.9250000 -29.3400000 -29.0950000
 -28.3320000 -28.5800000 -29.5110000 -27.0640000 -29.4050000 -29.5050000
 -27.8670000 -29.2510000 -29.2010000 -23.3880000 -28.1010000 -31.6130000
 -22.7150000 -27.6900000 -31.0730000 -24.1980000 -27.6550000 -31.3670000
 -23.4050000 -27.9910000 -31.5130000 -35.2350000 -27.6100000 -28.1100000
 -34.2780000 -27.6260000 -28.1290000 -35.4800000 -28.4240000 -27.6700000
 -35.1430000 -27.7160000 -28.0560000 -19.7660000 -28.6720000 -26.6270000
 -20.1550000 -29.1460000 -25.8910000 -20.3020000 -27.8830000 -26.7130000
 -19.8850000 -28.6320000 -26.5440000 -27.8570000 -24.2470000 -24.2620000
 -27.4650000 -23.4260000 -23.9660000 -28.7700000 -24.1920000 -23.9800000
 -27.9230000 -24.1350000 -24.1880000 -22.6340000 -30.9640000 -25.1130000
 -22.8980000 -31.6150000 -24.4630000 -22.4150000 -31.4760000 -25.8910000
 -22.6400000 -31.1120000 -25.1290000 -31.8870000 -29.1700000 -30.8880000
 -31.6990000 -29.9220000 -31.4500000 -31.0320000 -28.7800000 -30.7180000
 -31.7550000 -29.2160000 -30.9380000 -29.4370000 -23.9630000 -36.6050000
 -28.5930000 -24.0010000 -36.1540000 -29.2150000 -23.7580000 -37.5130000
 -29.3000000 -23.9420000 -36.6630000 -32.3870000 -28.1730000 -28.3360000
 -32.1300000 -28.5910000 -29.1580000 -32.3030000 -28.8650000 -27.6800000
 -32.3420000 -28.3150000 -28.3570000 -25.0750000 -23.7180000 -27.8770000
 -24.9760000 -23.4710000 -28.7970000 -25.9280000 -23.3680000 -27.6250000
 -25.1710000 -23.6420000 -27.9620000 -27.6850000 -19.3040000 -30.5380000
 -27.8690000 -20.1310000 -30.9840000 -27.9960000 -18.6310000 -31.1430000
 -27.7480000 -19.3240000 -30.6730000 -26.0960000 -20.0690000 -37.4480000
 -25.9390000 -19.2300000 -37.8810000 -25.8350000 -19.9220000 -36.5390000
 -26.0420000 -19.9430000 -37.3870000 -23.9860000 -21.2920000 -27.3380000
 -24.5300000 -20.6920000 -27.8490000 -24.3780000 -22.1530000 -27.4840000
 -24.1050000 -21.3250000 -27.4220000 -20.2110000 -29.8830000 -23.7150000
 -21.1070000 -30.2080000 -23.8020000 -20.3110000 -28.9880000 -23.3900000
 -20.3390000 -29.8100000 -23.6840000 -29.8950000 -18.9240000 -28.3650000
 -29.9280000 -19.6110000 -27.7000000 -29.4180000 -19.3190000 -29.0950000
 -29.8390000 -19.0620000 -28.3730000 -28.0150000 -28.1960000 -35.6770000
 -27.2850000 -27.5760000 -35.6880000 -28.7970000 -27.6450000 -35.7080000
 -28.0220000 -28.0460000 -35.6830000 -28.3830000 -30.8150000 -26.5610000
 -28.8320000 -31.5690000 -26.1790000 -27.6610000 -31.1950000 -27.0610000
 -28.3480000 -30.9600000 -26.5760000 -26.8480000 -26.6910000 -24.8490000
 -27.1250000 -25.8670000 -24.4470000 -25.8970000 -26.7050000 -24.7400000
 -26.7610000 -26.5870000 -24.7840000 -27.4920000 -19.4680000 -26.6000000
 -26.7030000 -18.9300000 -26.6540000 -28.0920000 -19.0760000 -27.2340000
 -27.4680000 -19.3490000 -26.6880000 -35.4630000 -28.8430000 -22.7120000
 -36.1420000 -28.2050000 -22.4920000 -35.8720000 -29.6920000 -22.5490000
 -35.6030000 -28.8700000 -22.6630000 -24.5030000 -20.8380000 -31.7480000
 -24.8700000 -20.2570000 -31.0830000 -23.6110000 -20.5150000 -31.8820000
 -24.4350000 -20.7220000 -31.6800000 -26.3970000 -28.4010000 -26.7630000
 -26.6650000 -27.7580000 -26.1060000 -27.1960000 -28.5830000 -27.2590000
 -26.5340000 -28.3420000 -26.7430000 -26.4200000 -30.0670000 -24.2010000
 -26.5840000 -29.7580000 -25.0920000 -27.2820000 -30.3310000 -23.8780000
 -26.5510000 -30.0610000 -24.2730000 -33.6230000 -25.1470000 -35.7710000
 -33.5370000 -25.1980000 -36.7230000 -34.1770000 -24.3790000 -35.6220000
 -33.6830000 -25.0550000 -35.8740000 -26.4880000 -26.4050000 -21.6650000
 -27.3060000 -26.5600000 -22.1360000 -26.4400000 -25.4520000 -21.5760000
 -26.5860000 -26.3030000 -21.7140000 -20.6650000 -20.4310000 -24.8650000
 -20.3840000 -20.5280000 -23.9550000 -21.4460000 -19.8800000 -24.8160000
 -20.7300000 -20.3730000 -24.7420000 -33.0130000 -25.7690000 -29.8060000
 -33.1010000 -24.9890000 -29.2570000 -32.9420000 -26.4930000 -29.1830000
 -33.0160000 -25.7620000 -29.6560000 -32.9120000 -30.6280000 -22.6220000
 -33.0030000 -30.7480000 -23.5670000 -33.6350000 -30.0500000 -22.3840000
 -33.0160000 -30.5690000 -22.7130000 -20.7440000 -21.6530000 -31.4300000
 -20.6740000 -22.2820000 -30.7130000 -20.6780000 -22.1850000 -32.2230000
 -20.7270000 -21.8010000 -31.4400000 -31.2860000 -31.0660000 -33.2840000
 -30.9130000 -31.1310000 -34.1630000 -32.1910000 -31.3620000 -33.3850000
 -31.3550000 -31.1130000 -33.4090000 -31.5870000 -23.9090000 -34.8500000
 -32.3200000 -24.3980000 -35.2260000 -30.9280000 -23.8960000 -35.5420000
 -31.5970000 -23.9700000 -34.9860000 -28.0960000 -30.4980000 -37.6600000
 -28.1150000 -29.8480000 -36.9580000 -27.7410000 -31.2860000 -37.2480000
 -28.0530000 -30.5150000 -37.5180000 -32.7260000 -23.2000000 -24.8810000
 -33.2960000 -22.5130000 -24.5340000 -33.1780000 -24.0160000 -24.6670000
 -32.8570000 -23.2160000 -24.8090000 -26.1350000 -21.6190000 -33.7900000
 -26.8200000 -21.6910000 -33.1250000 -25.3360000 -21.4410000 -33.2930000
 -26.1200000 -21.6060000 -33.6410000 -25.1250000 -22.6470000 -37.5430000
 -25.5250000 -21.7800000 -37.4930000 -25.6010000 -23.1680000 -36.8960000
 -25.2370000 -22.6020000 -37.4540000 -31.7460000 -24.3260000 -31.6870000
 -32.3820000 -24.7810000 -31.1360000 -32.2350000 -23.5920000 -32.0600000
 -31.8890000 -24.2900000 -31.6640000 -25.8680000 -22.6550000 -23.4820000
 -26.0710000 -22.9650000 -22.6000000 -25.3550000 -23.3630000 -23.8720000
 -25.8280000 -22.7860000 -23.4190000 -23.2230000 -25.0530000 -20.8350000
 -23.8630000 -25.5860000 -20.3630000 -23.2610000 -25.3760000 -21.7360000
 -23.3100000 -25.1630000 -20.8900000 -29.4560000 -22.6850000 -20.7000000
 -29.8430000 -23.0500000 -21.4960000 -30.1050000 -22.0560000 -20.3850000
 -29.5900000 -22.6530000 -20.7610000 -20.5560000 -27.2160000 -23.0180000
 -21.4470000 -27.0000000 -22.7400000 -20.2800000 -26.4640000 -23.5400000
 -20.6350000 -27.0920000 -23.0490000 -21.4880000 -25.1940000 -32.5860000
 -21.4660000 -25.0780000 -31.6360000 -21.3150000 -24.3210000 -32.9370000
 -21.4630000 -25.0670000 -32.5090000 -22.1130000 -19.2540000 -32.2790000
 -22.3780000 -19.2900000 -33.1980000 -21.4910000 -19.9750000 -32.1800000
 -22.0670000 -19.3510000 -32.3840000 -24.9390000 -19.2580000 -34.7680000
 -25.4550000 -19.9430000 -34.3420000 -25.4220000 -18.4510000 -34.5940000
 -25.0670000 -19.2430000 -34.6910000 -25.2030000 -17.7150000 -26.4670000
 -24.4270000 -17.8710000 -27.0060000 -25.2330000 -16.7640000 -26.3610000
 -25.1070000 -17.6130000 -26.5220000 -28.6330000 -21.3030000 -32.2380000
 -28.8700000 -22.1160000 -31.7940000 -29.4370000 -21.0250000 -32.6750000
 -28.7650000 -21.3710000 -32.2370000 -23.4390000 -21.8830000 -20.9310000
 -23.1700000 -22.7870000 -20.7710000 -24.3910000 -21.8960000 -20.8300000
 -23.5260000 -22.0000000 -20.8970000 -23.1300000 -26.1780000 -23.2340000
 -23.7390000 -26.9130000 -23.1780000 -23.5610000 -25.5530000 -23.8170000
 -23.2620000 -26.1920000 -23.3010000 -34.0320000 -25.5890000 -24.8090000
 -34.4920000 -25.2450000 -25.5740000 -33.9510000 -26.5280000 -24.9810000
 -34.0800000 -25.6650000 -24.9290000 -35.8360000 -27.9480000 -32.6240000
 -34.8800000 -27.9160000 -32.5970000 -36.1070000 -27.0310000 -32.5860000
 -35.7470000 -27.8270000 -32.6160000 -25.1670000 -30.3970000 -32.2690000
 -24.5470000 -29.9530000 -32.8480000 -25.9780000 -29.8930000 -32.3540000
 -25.1910000 -30.2750000 -32.3540000 -32.8750000 -22.2610000 -33.0370000
 -33.5760000 -21.8630000 -33.5540000 -32.4430000 -22.8640000 -33.6430000
 -32.9090000 -22.2870000 -33.1810000 -24.2740000 -24.3180000 -25.2150000
 -24.4470000 -24.3950000 -26.1530000 -23.4910000 -23.7710000 -25.1600000
 -24.1960000 -24.2580000 -25.3280000 -29.4560000 -27.9350000 -30.8960000
 -28.9420000 -28.5340000 -31.4360000 -29.7300000 -27.2440000 -31.5000000
 -29.4260000 -27.9230000 -31.0420000 -22.4280000 -19.3670000 -21.6050000
 -22.0200000 -19.1950000 -20.7570000 -22.6970000 -20.2840000 -21.5600000
 -22.4100000 -19.4620000 -21.4910000 -19.7620000 -20.0750000 -34.6070000
 -19.1740000 -20.2520000 -35.3420000 -20.3520000 -19.3950000 -34.9310000
 -19.7620000 -20.0110000 -34.7430000 -19.9210000 -21.7200000 -19.6120000
 -20.6940000 -21.6890000 -19.0480000 -19.3040000 -21.1100000 -19.2060000
 -19.9410000 -21.6380000 -19.4870000 -25.0200000 -26.5930000 -19.5430000
 -25.8310000 -26.5550000 -20.0500000 -24.6560000 -27.4560000 -19.7380000
 -25.0780000 -26.6980000 -19.6330000 -35.3940000 -24.4530000 -26.6030000
 -35.1350000 -23.7600000 -27.2110000 -36.2670000 -24.1940000 -26.3040000
 -35.4720000 -24.3310000 -26.6430000 -21.7070000 -26.8630000 -29.6220000
 -20.8530000 -27.2050000 -29.8920000 -21.6850000 -26.8920000 -28.6660000
 -21.5950000 -26.9110000 -29.5350000 -28.7760000 -29.9520000 -21.7170000
 -29.5300000 -30.2820000 -22.2060000 -28.9780000 -30.1500000 -20.8030000
 -28.8980000 -30.0200000 -21.6630000 -25.2260000 -30.6300000 -19.6480000
 -26.0100000 -30.6680000 -19.1000000 -24.5900000 -31.1800000 -19.1940000
 -25.2450000 -30.7050000 -19.5200000 -23.5600000 -26.1920000 -34.4070000
 -23.1650000 -25.8510000 -33.6050000 -23.0700000 -25.7730000 -35.1140000
 -23.4470000 -26.0950000 -34.3950000 -23.3660000 -19.8360000 -24.9700000
 -23.8400000 -19.0030000 -24.9770000 -23.8970000 -20.4170000 -25.5140000
 -23.4950000 -19.8040000 -25.0400000 -33.8550000 -20.9800000 -42.7260000
 -34.8100000 -21.0470000 -42.7580000 -33.6670000 -20.6720000 -41.8400000
 -33.9530000 -20.9480000 -42.6170000 -28.8110000 -27.3680000 -41.5870000
 -28.9400000 -28.2340000 -41.1980000 -28.3680000 -27.5430000 -42.4180000
 -28.7710000 -27.5010000 -41.6440000 -25.4350000 -19.6870000 -47.9800000
 -24.8480000 -18.9500000 -48.1550000 -26.2160000 -19.5010000 -48.4990000
 -25.4590000 -19.5690000 -48.0690000 -26.6450000 -31.5470000 -40.4430000
 -26.0600000 -31.2340000 -39.7540000 -27.3710000 -30.9220000 -40.4430000
 -26.6630000 -31.4280000 -40.3550000 -31.9110000 -21.3810000 -46.2940000
 -32.1730000 -21.7560000 -45.4530000 -31.1800000 -21.9260000 -46.5830000
 -31.8510000 -21.4990000 -46.2240000 -33.6730000 -23.1880000 -47.5790000
 -34.3970000 -22.8850000 -48.1270000 -33.0800000 -22.4380000 -47.5310000
 -33.6900000 -23.0530000 -47.6430000 -31.0500000 -30.4710000 -45.9660000
 -30.1690000 -30.1800000 -45.7330000 -30.9650000 -30.8050000 -46.8580000
 -30.9260000 -30.4760000 -46.0510000 -35.0860000 -22.7130000 -37.2950000
 -34.6030000 -22.1530000 -37.9020000 -35.5280000 -23.3490000 -37.8560000
 -35.0800000 -22.7220000 -37.4440000 -31.4600000 -20.9770000 -38.4970000
 -30.8850000 -21.0640000 -37.7360000 -31.5010000 -20.0350000 -38.6590000
 -31.3910000 -20.8680000 -38.4210000 -21.6250000 -26.6440000 -45.6600000
 -21.1850000 -26.1370000 -44.9770000 -22.2960000 -27.1410000 -45.1940000
 -21.6530000 -26.6430000 -45.5130000 -20.4090000 -24.8760000 -43.4320000
 -21.1230000 -24.2710000 -43.6310000 -19.6930000 -24.3130000 -43.1350000
 -20.4090000 -24.7270000 -43.4190000 -31.1050000 -27.1230000 -38.5960000
 -31.2620000 -28.0670000 -38.6320000 -31.1930000 -26.8310000 -39.5030000
 -31.1370000 -27.2070000 -38.7170000 -23.7870000 -28.1420000 -44.7400000
 -24.6620000 -28.3990000 -45.0300000 -23.4350000 -28.9250000 -44.3150000
 -23.8550000 -28.2750000 -44.7230000 -34.0780000 -21.2260000 -39.5820000
 -34.3300000 -20.3220000 -39.3910000 -33.1730000 -21.2910000 -39.2790000
 -33.9940000 -21.1180000 -39.5190000 -26.3160000 -23.6180000 -39.8070000
 -25.7350000 -23.7820000 -39.0660000 -26.9100000 -22.9320000 -39.4990000
 -26.3180000 -23.5510000 -39.6730000 -30.0140000 -23.1550000 -47.0680000
 -30.4940000 -23.9620000 -46.8910000 -29.2850000 -23.1680000 -46.4490000
 -29.9820000 -23.2600000 -46.9660000 -16.6020000 -30.2370000 -48.6840000
 -16.5880000 -30.5500000 -47.7790000 -16.6520000 -29.2840000 -48.6070000
 -16.6060000 -30.1550000 -48.5580000 -30.4710000 -30.6530000 -42.6810000
 -31.3160000 -30.9730000 -42.3640000 -29.9980000 -31.4440000 -42.9400000
 -30.5200000 -30.7950000 -42.6730000 -33.5450000 -25.4670000 -38.3470000
 -32.7330000 -25.9550000 -38.4890000 -33.8140000 -25.1900000 -39.2230000
 -33.4760000 -25.4940000 -38.4780000 -31.2820000 -26.4280000 -41.3190000
 -30.4030000 -26.8000000 -41.3710000 -31.8200000 -27.0080000 -41.8560000
 -31.2380000 -26.5490000 -41.3940000 -22.2930000 -22.7160000 -42.9620000
 -22.6450000 -22.8190000 -42.0770000 -22.1450000 -21.7740000 -43.0520000
 -22.3200000 -22.6090000 -42.8600000 -20.1560000 -20.9490000 -41.0830000
 -19.9580000 -21.3450000 -40.2330000 -20.8280000 -20.2940000 -40.8920000
 -20.2170000 -20.9160000 -40.9500000 -24.8380000 -28.1700000 -41.6700000
 -25.3950000 -28.5650000 -42.3420000 -25.4150000 -27.5600000 -41.2100000
 -24.9830000 -28.1420000 -41.6970000 -20.9240000 -28.9090000 -38.4760000
 -21.7470000 -28.5690000 -38.8250000 -21.0690000 -28.9650000 -37.5310000
 -21.0470000 -28.8730000 -38.4000000 -34.0000000 -28.5920000 -44.0440000
 -34.3760000 -28.7190000 -43.1740000 -34.5630000 -29.1030000 -44.6260000
 -34.1190000 -28.6730000 -44.0070000 -24.9920000 -27.0820000 -48.5890000
 -24.4470000 -26.5810000 -47.9820000 -25.6860000 -26.4750000 -48.8460000
 -25.0110000 -26.9410000 -48.5440000 -26.3530000 -19.9930000 -42.7990000
 -26.9010000 -20.0620000 -43.5790000 -25.9880000 -20.8700000 -42.6830000
 -26.3750000 -20.1140000 -42.8840000 -31.9180000 -29.9980000 -38.8480000
 -32.0340000 -30.2820000 -39.7550000 -32.8100000 -29.8950000 -38.5150000
 -32.0480000 -30.0210000 -38.9220000 -31.4880000 -25.4800000 -45.9700000
 -31.5280000 -26.4350000 -46.0070000 -31.9430000 -25.2510000 -45.1600000
 -31.5510000 -25.5720000 -45.8710000 -23.5230000 -28.8260000 -39.2880000
 -24.2150000 -29.4660000 -39.1200000 -23.7310000 -28.4700000 -40.1510000
 -23.6380000 -28.8630000 -39.3770000 -27.6450000 -22.8680000 -45.5600000
 -27.7100000 -23.3880000 -44.7580000 -27.1010000 -22.1190000 -45.3170000
 -27.5850000 -22.8390000 -45.4260000 -35.8330000 -19.7800000 -47.7810000
 -36.3750000 -19.3570000 -47.1140000 -34.9350000 -19.5830000 -47.5190000
 -35.7890000 -19.7000000 -47.6620000 -30.3850000 -23.9750000 -42.2860000
 -31.1670000 -23.5690000 -42.6550000 -30.6720000 -24.8460000 -42.0130000
 -30.5210000 -24.0350000 -42.2980000 -31.3590000 -28.0180000 -43.8070000
 -31.0340000 -28.8210000 -43.4000000 -32.2270000 -28.2500000 -44.1330000
 -31.4280000 -28.1500000 -43.7970000 -35.7420000 -27.0850000 -37.8380000
 -34.9400000 -26.5740000 -37.9470000 -36.1920000 -26.6660000 -37.1040000
 -35.6970000 -26.9650000 -37.7580000 -20.5580000 -19.1650000 -46.5100000
 -20.7050000 -20.1070000 -46.4280000 -19.9050000 -18.9660000 -45.8390000
 -20.4940000 -19.2600000 -46.4140000 -19.2250000 -22.8860000 -47.7240000
 -20.0700000 -22.4730000 -47.5400000 -19.3570000 -23.8080000 -47.5060000
 -19.3500000 -22.9510000 -47.6730000 -27.9250000 -29.3400000 -47.9550000
 -28.3320000 -28.5800000 -48.3710000 -27.0640000 -29.4050000 -48.3650000
 -27.8670000 -29.2510000 -48.0610000 -35.2350000 -27.6100000 -46.9700000
 -34.2780000 -27.6260000 -46.9890000 -35.4800000 -28.4240000 -46.5300000
 -35.1430000 -27.7160000 -46.9160000 -19.7660000 -28.6720000 -45.4870000
 -20.1550000 -29.1460000 -44.7510000 -20.3020000 -27.8830000 -45.5730000
 -19.8850000 -28.6320000 -45.4040000 -27.8570000 -24.2470000 -43.1220000
 -27.4650000 -23.4260000 -42.8260000 -28.7700000 -24.1920000 -42.8400000
 -27.9230000 -24.1350000 -43.0480000 -22.6340000 -30.9640000 -43.9730000
 -22.8980000 -31.6150000 -43.3230000 -22.4150000 -31.4760000 -44.7510000
 -22.6400000 -31.1120000 -43.9890000 -32.3870000 -28.1730000 -47.1960000
 -32.1300000 -28.5910000 -48.0180000 -32.3030000 -28.8650000 -46.5400000
 -32.3420000 -28.3150000 -47.2170000 -25.0750000 -23.7180000 -46.7370000
 -24.9760000 -23.4710000 -47.6570000 -25.9280000 -23.3680000 -46.4850000
 -25.1710000 -23.6420000 -46.8220000 -23.9860000 -21.2920000 -46.1980000
 -24.5300000 -20.6920000 -46.7090000 -24.3780000 -22.1530000 -46.3440000
 -24.1050000 -21.3250000 -46.2820000 -20.2110000 -29.8830000 -42.5750000
 -21.1070000 -30.2080000 -42.6620000 -20.3110000 -28.9880000 -42.2500000
 -20.3390000 -29.8100000 -42.5440000 -29.8950000 -18.9240000 -47.2250000
 -29.9280000 -19.6110000 -46.5600000 -29.4180000 -19.3190000 -47.9550000
 -29.8390000 -19.0620000 -47.2330000 -28.3830000 -30.8150000 -45.4210000
 -28.8320000 -31.5690000 -45.0390000 -27.6610000 -31.1950000 -45.9210000
 -28.3480000 -30.9600000 -45.4360000 -26.8480000 -26.6910000 -43.7090000
 -27.1250000 -25.8670000 -43.3070000 -25.8970000 -26.7050000 -43.6000000
 -26.7610000 -26.5870000 -43.6440000 -27.4920000 -19.4680000 -45.4600000
 -26.7030000 -18.9300000 -45.5140000 -28.0920000 -19.0760000 -46.0940000
 -27.4680000 -19.3490000 -45.5480000 -35.4630000 -28.8430000 -41.5720000
 -36.1420000 -28.2050000 -41.3520000 -35.8720000 -29.6920000 -41.4090000
 -35.6030000 -28.8700000 -41.5230000 -26.3970000 -28.4010000 -45.6230000
 -26.6650000 -27.7580000 -44.9650000 -27.1960000 -28.5830000 -46.1190000
 -26.5340000 -28.3420000 -45.6030000 -26.4200000 -30.0670000 -43.0610000
 -26.5840000 -29.7580000 -43.9520000 -27.2820000 -30.3310000 -42.7380000
 -26.5510000 -30.0610000 -43.1330000 -26.4880000 -26.4050000 -40.5250000
 -27.3060000 -26.5600000 -40.9960000 -26.4400000 -25.4520000 -40.4360000
 -26.5860000 -26.3030000 -40.5740000 -20.6650000 -20.4310000 -43.7250000
 -20.3840000 -20.5280000 -42.8150000 -21.4460000 -19.8800000 -43.6760000
 -20.7300000 -20.3730000 -43.6020000 -33.0130000 -25.7690000 -48.6660000
 -33.1010000 -24.9890000 -48.1170000 -32.9420000 -26.4930000 -48.0430000
 -33.0160000 -25.7620000 -48.5160000 -32.9120000 -30.6280000 -41.4820000
 -33.0030000 -30.7480000 -42.4270000 -33.6350000 -30.0500000 -41.2440000
 -33.0160000 -30.5690000 -41.5730000 -32.7260000 -23.2000000 -43.7410000
 -33.2960000 -22.5130000 -43.3940000 -33.1780000 -24.0160000 -43.5270000
 -32.8570000 -23.2160000 -43.6690000 -25.8680000 -22.6550000 -42.3420000
 -26.0710000 -22.9650000 -41.4600000 -25.3550000 -23.3630000 -42.7320000
 -25.8280000 -22.7860000 -42.2790000 -23.2230000 -25.0530000 -39.6950000
 -23.8630000 -25.5860000 -39.2230000 -23.2610000 -25.3760000 -40.5960000
 -23.3100000 -25.1630000 -39.7500000 -29.4560000 -22.6850000 -39.5600000
 -29.8430000 -23.0500000 -40.3560000 -30.1050000 -22.0560000 -39.2450000
 -29.5900000 -22.6530000 -39.6210000 -20.5560000 -27.2160000 -41.8780000
 -21.4470000 -27.0000000 -41.6000000 -20.2800000 -26.4640000 -42.4000000
 -20.6350000 -27.0920000 -41.9090000 -25.2030000 -17.7150000 -45.3270000
 -24.4270000 -17.8710000 -45.8660000 -25.2330000 -16.7640000 -45.2210000
 -25.1070000 -17.6130000 -45.3820000 -23.4390000 -21.8830000 -39.7910000
 -23.1700000 -22.7870000 -39.6310000 -24.3910000 -21.8960000 -39.6900000
 -23.5260000 -22.0000000 -39.7570000 -23.1300000 -26.1780000 -42.0940000
 -23.7390000 -26.9130000 -42.0380000 -23.5610000 -25.5530000 -42.6770000
 -23.2620000 -26.1920000 -42.1610000 -34.0320000 -25.5890000 -43.6690000
 -34.4920000 -25.2450000 -44.4340000 -33.9510000 -26.5280000 -43.8400000
 -34.0800000 -25.6650000 -43.7890000 -24.2740000 -24.3180000 -44.0750000
 -24.4470000 -24.3950000 -45.0130000 -23.4910000 -23.7710000 -44.0200000
 -24.1960000 -24.2580000 -44.1880000 -22.4280000 -19.3670000 -40.4650000
 -22.0200000 -19.1950000 -39.6170000 -22.6970000 -20.2840000 -40.4200000
 -22.4100000 -19.4620000 -40.3510000 -19.9210000 -21.7200000 -38.4720000
 -20.6940000 -21.6890000 -37.9080000 -19.3040000 -21.1100000 -38.0660000
 -19.9410000 -21.6380000 -38.3470000 -25.0200000 -26.5930000 -38.4030000
 -25.8310000 -26.5550000 -38.9100000 -24.6560000 -27.4560000 -38.5980000
 -25.0780000 -26.6980000 -38.4930000 -35.3940000 -24.4530000 -45.4630000
 -35.1350000 -23.7600000 -46.0710000 -36.2670000 -24.1940000 -45.1640000
 -35.4720000 -24.3310000 -45.5030000 -21.7070000 -26.8630000 -48.4820000
 -20.8530000 -27.2050000 -48.7520000 -21.6850000 -26.8920000 -47.5260000
 -21.5950000 -26.9110000 -48.3950000 -28.7760000 -29.9520000 -40.5770000
 -29.5300000 -30.2820000 -41.0650000 -28.9780000 -30.1500000 -39.6630000
 -28.8980000 -30.0200000 -40.5230000 -25.2260000 -30.6300000 -38.5080000
 -26.0100000 -30.6680000 -37.9600000 -24.5900000 -31.1800000 -38.0540000
 -25.2450000 -30.7050000 -38.3800000 -23.3660000 -19.8360000 -43.8300000
 -23.8400000 -19.0030000 -43.8370000 -23.8970000 -20.4170000 -44.3740000
 -23.4950000 -19.8040000 -43.9000000
