%VERSION  VERSION_STAMP = V0001.000  DATE = 03/03/25  11:45:15                  
%FLAG TITLE                                                                     
%FORMAT(20a4)                                                                   
default_name                                                                    
%FLAG POINTERS                                                                  
%FORMAT(10I8)                                                                   
    8762      14    6553    2201      20      27      44      40       0       0
   15415    2192    2201      27      40      22      30      12      18       0
       0       0       0       0       0       0       0       0      28       0
    2181
%FLAG ATOM_NAME                                                                 
%FORMAT(20a4)                                                                   
Na+ Cl- Na+ Cl- Na+ Cl- Na+ Cl- Na+ Cl- O6  C6  N1  C2  N2  N6  C11 C9  C10 C3  
C1  C7  N3  C4  C5  N7  C8  N9  H2  H4  H1  H7  H10 H9  H3  H5  H8  H6  O   H1  
H2  EPW O   H1  H2  EPW O   H1  H2  EPW O   H1  H2  EPW O   H1  H2  EPW O   H1  
H2  EPW O   H1  H2  EPW O   H1  H2  EPW O   H1  H2  EPW O   H1  H2  EPW O   H1  
H2  EPW O   H1  H2  EPW O   H1  H2  EPW O   H1  H2  EPW O   H1  H2  EPW O   H1  
H2  EPW O   H1  H2  EPW O   H1  H2  EPW O   H1  H2  EPW O   H1  H2  EPW O   H1  
H2  EPW O   H1  H2  EPW O   H1  H2  EPW O   H1  H2  EPW O   H1  H2  EPW O   H1  
H2  EPW O   H1  H2  EPW O   H1  H2  EPW O   H1  H2  EPW O   H1  H2  EPW O   H1  
H2  EPW O   H1  H2  EPW O   H1  H2  EPW O   H1  H2  EPW O   H1  H2  EPW O   H1  
H2  EPW O   H1  H2  EPW O   H1  H2  EPW O   H1  H2  EPW O   H1  H2  EPW O   H1  
H2  EPW O   H1  H2  EPW O   H1  H2  EPW O   H1  H2  EPW O   H1  H2  EPW O   H1  
H2  EPW O   H1  H2  EPW O   H1  H2  EPW O   H1  H2  EPW O   H1  H2  EPW O   H1  
H2  EPW O   H1  H2  EPW O   H1  H2  EPW O   H1  H2  EPW O   H1  H2  EPW O   H1  
H2  EPW O   H1  H2  EPW O   H1  H2  EPW O   H1  H2  EPW O   H1  H2  EPW O   H1  
H2  EPW O   H1  H2  EPW O   H1  H2  EPW O   H1  H2  EPW O   H1  H2  EPW O   H1  
H2  EPW O   H1  H2  EPW O   H1  H2  EPW O   H1  H2  EPW O   H1  H2  EPW O   H1  
H2  EPW O   H1  H2  EPW O   H1  H2  EPW O   H1  H2  EPW O   H1  H2  EPW O   H1  
H2  EPW O   H1  H2  EPW O   H1  H2  EPW O   H1  H2  EPW O   H1  H2  EPW O   H1  
H2  EPW O   H1  H2  EPW O   H1  H2  EPW O   H1  H2  EPW O   H1  H2  EPW O   H1  
H2  EPW O   H1  H2  EPW O   H1  H2  EPW O   H1  H2  EPW O   H1  H2  EPW O   H1  
H2  EPW O   H1  H2  EPW O   H1  H2  EPW O   H1  H2  EPW O   H1  H2  EPW O   H1  
H2  EPW O   H1  H2  EPW O   H1  H2  EPW O   H1  H2  EPW O   H1  H2  EPW O   H1  
H2  EPW O   H1  H2  EPW O   H1  H2  EPW O   H1  H2  EPW O   H1  H2  EPW O   H1  
H2  EPW O   H1  H2  EPW O   H1  H2  EPW O   H1  H2  EPW O   H1  H2  EPW O   H1  
H2  EPW O   H1  H2  EPW O   H1  H2  EPW O   H1  H2  EPW O   H1  H2  EPW O   H1  
H2  EPW O   H1  H2  EPW O   H1  H2  EPW O   H1  H2  EPW O   H1  H2  EPW O   H1  
H2  EPW O   H1  H2  EPW O   H1  H2  EPW O   H1  H2  EPW O   H1  H2  EPW O   H1  
H2  EPW O   H1  H2  EPW O   H1  H2  EPW O   H1  H2  EPW O   H1  H2  EPW O   H1  
H2  EPW O   H1  H2  EPW O   H1  H2  EPW O   H1  H2  EPW O   H1  H2  EPW O   H1  
H2  EPW O   H1  H2  EPW O   H1  H2  EPW O   H1  H2  EPW O   H1  H2  EPW O   H1  
H2  EPW O   H1  H2  EPW O   H1  H2  EPW O   H1  H2  EPW O   H1  H2  EPW O   H1  
H2  EPW O   H1  H2  EPW O   H1  H2  EPW O   H1  H2  EPW O   H1  H2  EPW O   H1  
H2  EPW O   H1  H2  EPW O   H1  H2  EPW O   H1  H2  EPW O   H1  H2  EPW O   H1  
H2  EPW O   H1  H2  EPW O   H1  H2  EPW O   H1  H2  EPW O   H1  H2  EPW O   H1  
H2  EPW O   H1  H2  EPW O   H1  H2  EPW O   H1  H2  EPW O   H1  H2  EPW O   H1  
H2  EPW O   H1  H2  EPW O   H1  H2  EPW O   H1  H2  EPW O   H1  H2  EPW O   H1  
H2  EPW O   H1  H2  EPW O   H1  H2  EPW O   H1  H2  EPW O   H1  H2  EPW O   H1  
H2  EPW O   H1  H2  EPW O   H1  H2  EPW O   H1  H2  EPW O   H1  H2  EPW O   H1  
H2  EPW O   H1  H2  EPW O   H1  H2  EPW O   H1  H2  EPW O   H1  H2  EPW O   H1  
H2  EPW O   H1  H2  EPW O   H1  H2  EPW O   H1  H2  EPW O   H1  H2  EPW O   H1  
H2  EPW O   H1  H2  EPW O   H1  H2  EPW O   H1  H2  EPW O   H1  H2  EPW O   H1  
H2  EPW O   H1  H2  EPW O   H1  H2  EPW O   H1  H2  EPW O   H1  H2  EPW O   H1  
H2  EPW O   H1  H2  EPW O   H1  H2  EPW O   H1  H2  EPW O   H1  H2  EPW O   H1  
H2  EPW O   H1  H2  EPW O   H1  H2  EPW O   H1  H2  EPW O   H1  H2  EPW O   H1  
H2  EPW O   H1  H2  EPW O   H1  H2  EPW O   H1  H2  EPW O   H1  H2  EPW O   H1  
H2  EPW O   H1  H2  EPW O   H1  H2  EPW O   H1  H2  EPW O   H1  H2  EPW O   H1  
H2  EPW O   H1  H2  EPW O   H1  H2  EPW O   H1  H2  EPW O   H1  H2  EPW O   H1  
H2  EPW O   H1  H2  EPW O   H1  H2  EPW O   H1  H2  EPW O   H1  H2  EPW O   H1  
H2  EPW O   H1  H2  EPW O   H1  H2  EPW O   H1  H2  EPW O   H1  H2  EPW O   H1  
H2  EPW O   H1  H2  EPW O   H1  H2  EPW O   H1  H2  EPW O   H1  H2  EPW O   H1  
H2  EPW O   H1  H2  EPW O   H1  H2  EPW O   H1  H2  EPW O   H1  H2  EPW O   H1  
H2  EPW O   H1  H2  EPW O   H1  H2  EPW O   H1  H2  EPW O   H1  H2  EPW O   H1  
H2  EPW O   H1  H2  EPW O   H1  H2  EPW O   H1  H2  EPW O   H1  H2  EPW O   H1  
H2  EPW O   H1  H2  EPW O   H1  H2  EPW O   H1  H2  EPW O   H1  H2  EPW O   H1  
H2  EPW O   H1  H2  EPW O   H1  H2  EPW O   H1  H2  EPW O   H1  H2  EPW O   H1  
H2  EPW O   H1  H2  EPW O   H1  H2  EPW O   H1  H2  EPW O   H1  H2  EPW O   H1  
H2  EPW O   H1  H2  EPW O   H1  H2  EPW O   H1  H2  EPW O   H1  H2  EPW O   H1  
H2  EPW O   H1  H2  EPW O   H1  H2  EPW O   H1  H2  EPW O   H1  H2  EPW O   H1  
H2  EPW O   H1  H2  EPW O   H1  H2  EPW O   H1  H2  EPW O   H1  H2  EPW O   H1  
H2  EPW O   H1  H2  EPW O   H1  H2  EPW O   H1  H2  EPW O   H1  H2  EPW O   H1  
H2  EPW O   H1  H2  EPW O   H1  H2  EPW O   H1  H2  EPW O   H1  H2  EPW O   H1  
H2  EPW O   H1  H2  EPW O   H1  H2  EPW O   H1  H2  EPW O   H1  H2  EPW O   H1  
H2  EPW O   H1  H2  EPW O   H1  H2  EPW O   H1  H2  EPW O   H1  H2  EPW O   H1  
H2  EPW O   H1  H2  EPW O   H1  H2  EPW O   H1  H2  EPW O   H1  H2  EPW O   H1  
H2  EPW O   H1  H2  EPW O   H1  H2  EPW O   H1  H2  EPW O   H1  H2  EPW O   H1  
H2  EPW O   H1  H2  EPW O   H1  H2  EPW O   H1  H2  EPW O   H1  H2  EPW O   H1  
H2  EPW O   H1  H2  EPW O   H1  H2  EPW O   H1  H2  EPW O   H1  H2  EPW O   H1  
H2  EPW O   H1  H2  EPW O   H1  H2  EPW O   H1  H2  EPW O   H1  H2  EPW O   H1  
H2  EPW O   H1  H2  EPW O   H1  H2  EPW O   H1  H2  EPW O   H1  H2  EPW O   H1  
H2  EPW O   H1  H2  EPW O   H1  H2  EPW O   H1  H2  EPW O   H1  H2  EPW O   H1  
H2  EPW O   H1  H2  EPW O   H1  H2  EPW O   H1  H2  EPW O   H1  H2  EPW O   H1  
H2  EPW O   H1  H2  EPW O   H1  H2  EPW O   H1  H2  EPW O   H1  H2  EPW O   H1  
H2  EPW O   H1  H2  EPW O   H1  H2  EPW O   H1  H2  EPW O   H1  H2  EPW O   H1  
H2  EPW O   H1  H2  EPW O   H1  H2  EPW O   H1  H2  EPW O   H1  H2  EPW O   H1  
H2  EPW O   H1  H2  EPW O   H1  H2  EPW O   H1  H2  EPW O   H1  H2  EPW O   H1  
H2  EPW O   H1  H2  EPW O   H1  H2  EPW O   H1  H2  EPW O   H1  H2  EPW O   H1  
H2  EPW O   H1  H2  EPW O   H1  H2  EPW O   H1  H2  EPW O   H1  H2  EPW O   H1  
H2  EPW O   H1  H2  EPW O   H1  H2  EPW O   H1  H2  EPW O   H1  H2  EPW O   H1  
H2  EPW O   H1  H2  EPW O   H1  H2  EPW O   H1  H2  EPW O   H1  H2  EPW O   H1  
H2  EPW O   H1  H2  EPW O   H1  H2  EPW O   H1  H2  EPW O   H1  H2  EPW O   H1  
H2  EPW O   H1  H2  EPW O   H1  H2  EPW O   H1  H2  EPW O   H1  H2  EPW O   H1  
H2  EPW O   H1  H2  EPW O   H1  H2  EPW O   H1  H2  EPW O   H1  H2  EPW O   H1  
H2  EPW O   H1  H2  EPW O   H1  H2  EPW O   H1  H2  EPW O   H1  H2  EPW O   H1  
H2  EPW O   H1  H2  EPW O   H1  H2  EPW O   H1  H2  EPW O   H1  H2  EPW O   H1  
H2  EPW O   H1  H2  EPW O   H1  H2  EPW O   H1  H2  EPW O   H1  H2  EPW O   H1  
H2  EPW O   H1  H2  EPW O   H1  H2  EPW O   H1  H2  EPW O   H1  H2  EPW O   H1  
H2  EPW O   H1  H2  EPW O   H1  H2  EPW O   H1  H2  EPW O   H1  H2  EPW O   H1  
H2  EPW O   H1  H2  EPW O   H1  H2  EPW O   H1  H2  EPW O   H1  H2  EPW O   H1  
H2  EPW O   H1  H2  EPW O   H1  H2  EPW O   H1  H2  EPW O   H1  H2  EPW O   H1  
H2  EPW O   H1  H2  EPW O   H1  H2  EPW O   H1  H2  EPW O   H1  H2  EPW O   H1  
H2  EPW O   H1  H2  EPW O   H1  H2  EPW O   H1  H2  EPW O   H1  H2  EPW O   H1  
H2  EPW O   H1  H2  EPW O   H1  H2  EPW O   H1  H2  EPW O   H1  H2  EPW O   H1  
H2  EPW O   H1  H2  EPW O   H1  H2  EPW O   H1  H2  EPW O   H1  H2  EPW O   H1  
H2  EPW O   H1  H2  EPW O   H1  H2  EPW O   H1  H2  EPW O   H1  H2  EPW O   H1  
H2  EPW O   H1  H2  EPW O   H1  H2  EPW O   H1  H2  EPW O   H1  H2  EPW O   H1  
H2  EPW O   H1  H2  EPW O   H1  H2  EPW O   H1  H2  EPW O   H1  H2  EPW O   H1  
H2  EPW O   H1  H2  EPW O   H1  H2  EPW O   H1  H2  EPW O   H1  H2  EPW O   H1  
H2  EPW O   H1  H2  EPW O   H1  H2  EPW O   H1  H2  EPW O   H1  H2  EPW O   H1  
H2  EPW O   H1  H2  EPW O   H1  H2  EPW O   H1  H2  EPW O   H1  H2  EPW O   H1  
H2  EPW O   H1  H2  EPW O   H1  H2  EPW O   H1  H2  EPW O   H1  H2  EPW O   H1  
H2  EPW O   H1  H2  EPW O   H1  H2  EPW O   H1  H2  EPW O   H1  H2  EPW O   H1  
H2  EPW O   H1  H2  EPW O   H1  H2  EPW O   H1  H2  EPW O   H1  H2  EPW O   H1  
H2  EPW O   H1  H2  EPW O   H1  H2  EPW O   H1  H2  EPW O   H1  H2  EPW O   H1  
H2  EPW O   H1  H2  EPW O   H1  H2  EPW O   H1  H2  EPW O   H1  H2  EPW O   H1  
H2  EPW O   H1  H2  EPW O   H1  H2  EPW O   H1  H2  EPW O   H1  H2  EPW O   H1  
H2  EPW O   H1  H2  EPW O   H1  H2  EPW O   H1  H2  EPW O   H1  H2  EPW O   H1  
H2  EPW O   H1  H2  EPW O   H1  H2  EPW O   H1  H2  EPW O   H1  H2  EPW O   H1  
H2  EPW O   H1  H2  EPW O   H1  H2  EPW O   H1  H2  EPW O   H1  H2  EPW O   H1  
H2  EPW O   H1  H2  EPW O   H1  H2  EPW O   H1  H2  EPW O   H1  H2  EPW O   H1  
H2  EPW O   H1  H2  EPW O   H1  H2  EPW O   H1  H2  EPW O   H1  H2  EPW O   H1  
H2  EPW O   H1  H2  EPW O   H1  H2  EPW O   H1  H2  EPW O   H1  H2  EPW O   H1  
H2  EPW O   H1  H2  EPW O   H1  H2  EPW O   H1  H2  EPW O   H1  H2  EPW O   H1  
H2  EPW O   H1  H2  EPW O   H1  H2  EPW O   H1  H2  EPW O   H1  H2  EPW O   H1  
H2  EPW O   H1  H2  EPW O   H1  H2  EPW O   H1  H2  EPW O   H1  H2  EPW O   H1  
H2  EPW O   H1  H2  EPW O   H1  H2  EPW O   H1  H2  EPW O   H1  H2  EPW O   H1  
H2  EPW O   H1  H2  EPW O   H1  H2  EPW O   H1  H2  EPW O   H1  H2  EPW O   H1  
H2  EPW O   H1  H2  EPW O   H1  H2  EPW O   H1  H2  EPW O   H1  H2  EPW O   H1  
H2  EPW O   H1  H2  EPW O   H1  H2  EPW O   H1  H2  EPW O   H1  H2  EPW O   H1  
H2  EPW O   H1  H2  EPW O   H1  H2  EPW O   H1  H2  EPW O   H1  H2  EPW O   H1  
H2  EPW O   H1  H2  EPW O   H1  H2  EPW O   H1  H2  EPW O   H1  H2  EPW O   H1  
H2  EPW O   H1  H2  EPW O   H1  H2  EPW O   H1  H2  EPW O   H1  H2  EPW O   H1  
H2  EPW O   H1  H2  EPW O   H1  H2  EPW O   H1  H2  EPW O   H1  H2  EPW O   H1  
H2  EPW O   H1  H2  EPW O   H1  H2  EPW O   H1  H2  EPW O   H1  H2  EPW O   H1  
H2  EPW O   H1  H2  EPW O   H1  H2  EPW O   H1  H2  EPW O   H1  H2  EPW O   H1  
H2  EPW O   H1  H2  EPW O   H1  H2  EPW O   H1  H2  EPW O   H1  H2  EPW O   H1  
H2  EPW O   H1  H2  EPW O   H1  H2  EPW O   H1  H2  EPW O   H1  H2  EPW O   H1  
H2  EPW O   H1  H2  EPW O   H1  H2  EPW O   H1  H2  EPW O   H1  H2  EPW O   H1  
H2  EPW O   H1  H2  EPW O   H1  H2  EPW O   H1  H2  EPW O   H1  H2  EPW O   H1  
H2  EPW O   H1  H2  EPW O   H1  H2  EPW O   H1  H2  EPW O   H1  H2  EPW O   H1  
H2  EPW O   H1  H2  EPW O   H1  H2  EPW O   H1  H2  EPW O   H1  H2  EPW O   H1  
H2  EPW O   H1  H2  EPW O   H1  H2  EPW O   H1  H2  EPW O   H1  H2  EPW O   H1  
H2  EPW O   H1  H2  EPW O   H1  H2  EPW O   H1  H2  EPW O   H1  H2  EPW O   H1  
H2  EPW O   H1  H2  EPW O   H1  H2  EPW O   H1  H2  EPW O   H1  H2  EPW O   H1  
H2  EPW O   H1  H2  EPW O   H1  H2  EPW O   H1  H2  EPW O   H1  H2  EPW O   H1  
H2  EPW O   H1  H2  EPW O   H1  H2  EPW O   H1  H2  EPW O   H1  H2  EPW O   H1  
H2  EPW O   H1  H2  EPW O   H1  H2  EPW O   H1  H2  EPW O   H1  H2  EPW O   H1  
H2  EPW O   H1  H2  EPW O   H1  H2  EPW O   H1  H2  EPW O   H1  H2  EPW O   H1  
H2  EPW O   H1  H2  EPW O   H1  H2  EPW O   H1  H2  EPW O   H1  H2  EPW O   H1  
H2  EPW O   H1  H2  EPW O   H1  H2  EPW O   H1  H2  EPW O   H1  H2  EPW O   H1  
H2  EPW O   H1  H2  EPW O   H1  H2  EPW O   H1  H2  EPW O   H1  H2  EPW O   H1  
H2  EPW O   H1  H2  EPW O   H1  H2  EPW O   H1  H2  EPW O   H1  H2  EPW O   H1  
H2  EPW O   H1  H2  EPW O   H1  H2  EPW O   H1  H2  EPW O   H1  H2  EPW O   H1  
H2  EPW O   H1  H2  EPW O   H1  H2  EPW O   H1  H2  EPW O   H1  H2  EPW O   H1  
H2  EPW O   H1  H2  EPW O   H1  H2  EPW O   H1  H2  EPW O   H1  H2  EPW O   H1  
H2  EPW O   H1  H2  EPW O   H1  H2  EPW O   H1  H2  EPW O   H1  H2  EPW O   H1  
H2  EPW O   H1  H2  EPW O   H1  H2  EPW O   H1  H2  EPW O   H1  H2  EPW O   H1  
H2  EPW O   H1  H2  EPW O   H1  H2  EPW O   H1  H2  EPW O   H1  H2  EPW O   H1  
H2  EPW O   H1  H2  EPW O   H1  H2  EPW O   H1  H2  EPW O   H1  H2  EPW O   H1  
H2  EPW O   H1  H2  EPW O   H1  H2  EPW O   H1  H2  EPW O   H1  H2  EPW O   H1  
H2  EPW O   H1  H2  EPW O   H1  H2  EPW O   H1  H2  EPW O   H1  H2  EPW O   H1  
H2  EPW O   H1  H2  EPW O   H1  H2  EPW O   H1  H2  EPW O   H1  H2  EPW O   H1  
H2  EPW O   H1  H2  EPW O   H1  H2  EPW O   H1  H2  EPW O   H1  H2  EPW O   H1  
H2  EPW O   H1  H2  EPW O   H1  H2  EPW O   H1  H2  EPW O   H1  H2  EPW O   H1  
H2  EPW O   H1  H2  EPW O   H1  H2  EPW O   H1  H2  EPW O   H1  H2  EPW O   H1  
H2  EPW O   H1  H2  EPW O   H1  H2  EPW O   H1  H2  EPW O   H1  H2  EPW O   H1  
H2  EPW O   H1  H2  EPW O   H1  H2  EPW O   H1  H2  EPW O   H1  H2  EPW O   H1  
H2  EPW O   H1  H2  EPW O   H1  H2  EPW O   H1  H2  EPW O   H1  H2  EPW O   H1  
H2  EPW O   H1  H2  EPW O   H1  H2  EPW O   H1  H2  EPW O   H1  H2  EPW O   H1  
H2  EPW O   H1  H2  EPW O   H1  H2  EPW O   H1  H2  EPW O   H1  H2  EPW O   H1  
H2  EPW O   H1  H2  EPW O   H1  H2  EPW O   H1  H2  EPW O   H1  H2  EPW O   H1  
H2  EPW O   H1  H2  EPW O   H1  H2  EPW O   H1  H2  EPW O   H1  H2  EPW O   H1  
H2  EPW O   H1  H2  EPW O   H1  H2  EPW O   H1  H2  EPW O   H1  H2  EPW O   H1  
H2  EPW O   H1  H2  EPW O   H1  H2  EPW O   H1  H2  EPW O   H1  H2  EPW O   H1  
H2  EPW O   H1  H2  EPW O   H1  H2  EPW O   H1  H2  EPW O   H1  H2  EPW O   H1  
H2  EPW O   H1  H2  EPW O   H1  H2  EPW O   H1  H2  EPW O   H1  H2  EPW O   H1  
H2  EPW O   H1  H2  EPW O   H1  H2  EPW O   H1  H2  EPW O   H1  H2  EPW O   H1  
H2  EPW O   H1  H2  EPW O   H1  H2  EPW O   H1  H2  EPW O   H1  H2  EPW O   H1  
H2  EPW O   H1  H2  EPW O   H1  H2  EPW O   H1  H2  EPW O   H1  H2  EPW O   H1  
H2  EPW O   H1  H2  EPW O   H1  H2  EPW O   H1  H2  EPW O   H1  H2  EPW O   H1  
H2  EPW O   H1  H2  EPW O   H1  H2  EPW O   H1  H2  EPW O   H1  H2  EPW O   H1  
H2  EPW O   H1  H2  EPW O   H1  H2  EPW O   H1  H2  EPW O   H1  H2  EPW O   H1  
H2  EPW O   H1  H2  EPW O   H1  H2  EPW O   H1  H2  EPW O   H1  H2  EPW O   H1  
H2  EPW O   H1  H2  EPW O   H1  H2  EPW O   H1  H2  EPW O   H1  H2  EPW O   H1  
H2  EPW O   H1  H2  EPW O   H1  H2  EPW O   H1  H2  EPW O   H1  H2  EPW O   H1  
H2  EPW O   H1  H2  EPW O   H1  H2  EPW O   H1  H2  EPW O   H1  H2  EPW O   H1  
H2  EPW O   H1  H2  EPW O   H1  H2  EPW O   H1  H2  EPW O   H1  H2  EPW O   H1  
H2  EPW O   H1  H2  EPW O   H1  H2  EPW O   H1  H2  EPW O   H1  H2  EPW O   H1  
H2  EPW O   H1  H2  EPW O   H1  H2  EPW O   H1  H2  EPW O   H1  H2  EPW O   H1  
H2  EPW O   H1  H2  EPW O   H1  H2  EPW O   H1  H2  EPW O   H1  H2  EPW O   H1  
H2  EPW O   H1  H2  EPW O   H1  H2  EPW O   H1  H2  EPW O   H1  H2  EPW O   H1  
H2  EPW O   H1  H2  EPW O   H1  H2  EPW O   H1  H2  EPW O   H1  H2  EPW O   H1  
H2  EPW O   H1  H2  EPW O   H1  H2  EPW O   H1  H2  EPW O   H1  H2  EPW O   H1  
H2  EPW O   H1  H2  EPW O   H1  H2  EPW O   H1  H2  EPW O   H1  H2  EPW O   H1  
H2  EPW O   H1  H2  EPW O   H1  H2  EPW O   H1  H2  EPW O   H1  H2  EPW O   H1  
H2  EPW O   H1  H2  EPW O   H1  H2  EPW O   H1  H2  EPW O   H1  H2  EPW O   H1  
H2  EPW O   H1  H2  EPW O   H1  H2  EPW O   H1  H2  EPW O   H1  H2  EPW O   H1  
H2  EPW O   H1  H2  EPW O   H1  H2  EPW O   H1  H2  EPW O   H1  H2  EPW O   H1  
H2  EPW O   H1  H2  EPW O   H1  H2  EPW O   H1  H2  EPW O   H1  H2  EPW O   H1  
H2  EPW O   H1  H2  EPW O   H1  H2  EPW O   H1  H2  EPW O   H1  H2  EPW O   H1  
H2  EPW O   H1  H2  EPW O   H1  H2  EPW O   H1  H2  EPW O   H1  H2  EPW O   H1  
H2  EPW O   H1  H2  EPW O   H1  H2  EPW O   H1  H2  EPW O   H1  H2  EPW O   H1  
H2  EPW O   H1  H2  EPW O   H1  H2  EPW O   H1  H2  EPW O   H1  H2  EPW O   H1  
H2  EPW O   H1  H2  EPW O   H1  H2  EPW O   H1  H2  EPW O   H1  H2  EPW O   H1  
H2  EPW O   H1  H2  EPW O   H1  H2  EPW O   H1  H2  EPW O   H1  H2  EPW O   H1  
H2  EPW O   H1  H2  EPW O   H1  H2  EPW O   H1  H2  EPW O   H1  H2  EPW O   H1  
H2  EPW O   H1  H2  EPW O   H1  H2  EPW O   H1  H2  EPW O   H1  H2  EPW O   H1  
H2  EPW O   H1  H2  EPW O   H1  H2  EPW O   H1  H2  EPW O   H1  H2  EPW O   H1  
H2  EPW O   H1  H2  EPW O   H1  H2  EPW O   H1  H2  EPW O   H1  H2  EPW O   H1  
H2  EPW O   H1  H2  EPW O   H1  H2  EPW O   H1  H2  EPW O   H1  H2  EPW O   H1  
H2  EPW O   H1  H2  EPW O   H1  H2  EPW O   H1  H2  EPW O   H1  H2  EPW O   H1  
H2  EPW O   H1  H2  EPW O   H1  H2  EPW O   H1  H2  EPW O   H1  H2  EPW O   H1  
H2  EPW O   H1  H2  EPW O   H1  H2  EPW O   H1  H2  EPW O   H1  H2  EPW O   H1  
H2  EPW O   H1  H2  EPW O   H1  H2  EPW O   H1  H2  EPW O   H1  H2  EPW O   H1  
H2  EPW O   H1  H2  EPW O   H1  H2  EPW O   H1  H2  EPW O   H1  H2  EPW O   H1  
H2  EPW O   H1  H2  EPW O   H1  H2  EPW O   H1  H2  EPW O   H1  H2  EPW O   H1  
H2  EPW O   H1  H2  EPW O   H1  H2  EPW O   H1  H2  EPW O   H1  H2  EPW O   H1  
H2  EPW O   H1  H2  EPW O   H1  H2  EPW O   H1  H2  EPW O   H1  H2  EPW O   H1  
H2  EPW O   H1  H2  EPW O   H1  H2  EPW O   H1  H2  EPW O   H1  H2  EPW O   H1  
H2  EPW O   H1  H2  EPW O   H1  H2  EPW O   H1  H2  EPW O   H1  H2  EPW O   H1  
H2  EPW O   H1  H2  EPW O   H1  H2  EPW O   H1  H2  EPW O   H1  H2  EPW O   H1  
H2  EPW O   H1  H2  EPW O   H1  H2  EPW O   H1  H2  EPW O   H1  H2  EPW O   H1  
H2  EPW O   H1  H2  EPW O   H1  H2  EPW O   H1  H2  EPW O   H1  H2  EPW O   H1  
H2  EPW O   H1  H2  EPW O   H1  H2  EPW O   H1  H2  EPW O   H1  H2  EPW O   H1  
H2  EPW O   H1  H2  EPW O   H1  H2  EPW O   H1  H2  EPW O   H1  H2  EPW O   H1  
H2  EPW O   H1  H2  EPW O   H1  H2  EPW O   H1  H2  EPW O   H1  H2  EPW O   H1  
H2  EPW O   H1  H2  EPW O   H1  H2  EPW O   H1  H2  EPW O   H1  H2  EPW O   H1  
H2  EPW O   H1  H2  EPW O   H1  H2  EPW O   H1  H2  EPW O   H1  H2  EPW O   H1  
H2  EPW O   H1  H2  EPW O   H1  H2  EPW O   H1  H2  EPW O   H1  H2  EPW O   H1  
H2  EPW O   H1  H2  EPW O   H1  H2  EPW O   H1  H2  EPW O   H1  H2  EPW O   H1  
H2  EPW O   H1  H2  EPW O   H1  H2  EPW O   H1  H2  EPW O   H1  H2  EPW O   H1  
H2  EPW O   H1  H2  EPW O   H1  H2  EPW O   H1  H2  EPW O   H1  H2  EPW O   H1  
H2  EPW O   H1  H2  EPW O   H1  H2  EPW O   H1  H2  EPW O   H1  H2  EPW O   H1  
H2  EPW O   H1  H2  EPW O   H1  H2  EPW O   H1  H2  EPW O   H1  H2  EPW O   H1  
H2  EPW O   H1  H2  EPW O   H1  H2  EPW O   H1  H2  EPW O   H1  H2  EPW O   H1  
H2  EPW O   H1  H2  EPW O   H1  H2  EPW O   H1  H2  EPW O   H1  H2  EPW O   H1  
H2  EPW O   H1  H2  EPW O   H1  H2  EPW O   H1  H2  EPW O   H1  H2  EPW O   H1  
H2  EPW O   H1  H2  EPW O   H1  H2  EPW O   H1  H2  EPW O   H1  H2  EPW O   H1  
H2  EPW O   H1  H2  EPW O   H1  H2  EPW O   H1  H2  EPW O   H1  H2  EPW O   H1  
H2  EPW O   H1  H2  EPW O   H1  H2  EPW O   H1  H2  EPW O   H1  H2  EPW O   H1  
H2  EPW O   H1  H2  EPW O   H1  H2  EPW O   H1  H2  EPW O   H1  H2  EPW O   H1  
H2  EPW O   H1  H2  EPW O   H1  H2  EPW O   H1  H2  EPW O   H1  H2  EPW O   H1  
H2  EPW O   H1  H2  EPW O   H1  H2  EPW O   H1  H2  EPW O   H1  H2  EPW O   H1  
H2  EPW O   H1  H2  EPW O   H1  H2  EPW O   H1  H2  EPW O   H1  H2  EPW O   H1  
H2  EPW O   H1  H2  EPW O   H1  H2  EPW O   H1  H2  EPW O   H1  H2  EPW O   H1  
H2  EPW O   H1  H2  EPW O   H1  H2  EPW O   H1  H2  EPW O   H1  H2  EPW O   H1  
H2  EPW O   H1  H2  EPW O   H1  H2  EPW O   H1  H2  EPW O   H1  H2  EPW O   H1  
H2  EPW O   H1  H2  EPW O   H1  H2  EPW O   H1  H2  EPW O   H1  H2  EPW O   H1  
H2  EPW O   H1  H2  EPW O   H1  H2  EPW O   H1  H2  EPW O   H1  H2  EPW O   H1  
H2  EPW O   H1  H2  EPW O   H1  H2  EPW O   H1  H2  EPW O   H1  H2  EPW O   H1  
H2  EPW O   H1  H2  EPW O   H1  H2  EPW O   H1  H2  EPW O   H1  H2  EPW O   H1  
H2  EPW O   H1  H2  EPW O   H1  H2  EPW O   H1  H2  EPW O   H1  H2  EPW O   H1  
H2  EPW O   H1  H2  EPW O   H1  H2  EPW O   H1  H2  EPW O   H1  H2  EPW O   H1  
H2  EPW O   H1  H2  EPW O   H1  H2  EPW O   H1  H2  EPW O   H1  H2  EPW O   H1  
H2  EPW O   H1  H2  EPW O   H1  H2  EPW O   H1  H2  EPW O   H1  H2  EPW O   H1  
H2  EPW O   H1  H2  EPW O   H1  H2  EPW O   H1  H2  EPW O   H1  H2  EPW O   H1  
H2  EPW O   H1  H2  EPW O   H1  H2  EPW O   H1  H2  EPW O   H1  H2  EPW O   H1  
H2  EPW O   H1  H2  EPW O   H1  H2  EPW O   H1  H2  EPW O   H1  H2  EPW O   H1  
H2  EPW O   H1  H2  EPW O   H1  H2  EPW O   H1  H2  EPW O   H1  H2  EPW O   H1  
H2  EPW O   H1  H2  EPW O   H1  H2  EPW O   H1  H2  EPW O   H1  H2  EPW O   H1  
H2  EPW O   H1  H2  EPW O   H1  H2  EPW O   H1  H2  EPW O   H1  H2  EPW O   H1  
H2  EPW O   H1  H2  EPW O   H1  H2  EPW O   H1  H2  EPW O   H1  H2  EPW O   H1  
H2  EPW O   H1  H2  EPW O   H1  H2  EPW O   H1  H2  EPW O   H1  H2  EPW O   H1  
H2  EPW O   H1  H2  EPW O   H1  H2  EPW O   H1  H2  EPW O   H1  H2  EPW O   H1  
H2  EPW O   H1  H2  EPW O   H1  H2  EPW O   H1  H2  EPW O   H1  H2  EPW O   H1  
H2  EPW O   H1  H2  EPW O   H1  H2  EPW O   H1  H2  EPW O   H1  H2  EPW O   H1  
H2  EPW O   H1  H2  EPW O   H1  H2  EPW O   H1  H2  EPW O   H1  H2  EPW O   H1  
H2  EPW O   H1  H2  EPW O   H1  H2  EPW O   H1  H2  EPW O   H1  H2  EPW O   H1  
H2  EPW O   H1  H2  EPW O   H1  H2  EPW O   H1  H2  EPW O   H1  H2  EPW O   H1  
H2  EPW O   H1  H2  EPW O   H1  H2  EPW O   H1  H2  EPW O   H1  H2  EPW O   H1  
H2  EPW O   H1  H2  EPW O   H1  H2  EPW O   H1  H2  EPW O   H1  H2  EPW O   H1  
H2  EPW O   H1  H2  EPW O   H1  H2  EPW O   H1  H2  EPW O   H1  H2  EPW O   H1  
H2  EPW O   H1  H2  EPW O   H1  H2  EPW O   H1  H2  EPW O   H1  H2  EPW O   H1  
H2  EPW O   H1  H2  EPW O   H1  H2  EPW O   H1  H2  EPW O   H1  H2  EPW O   H1  
H2  EPW O   H1  H2  EPW O   H1  H2  EPW O   H1  H2  EPW O   H1  H2  EPW O   H1  
H2  EPW O   H1  H2  EPW O   H1  H2  EPW O   H1  H2  EPW O   H1  H2  EPW O   H1  
H2  EPW O   H1  H2  EPW O   H1  H2  EPW O   H1  H2  EPW O   H1  H2  EPW O   H1  
H2  EPW O   H1  H2  EPW O   H1  H2  EPW O   H1  H2  EPW O   H1  H2  EPW O   H1  
H2  EPW O   H1  H2  EPW O   H1  H2  EPW O   H1  H2  EPW O   H1  H2  EPW O   H1  
H2  EPW O   H1  H2  EPW O   H1  H2  EPW O   H1  H2  EPW O   H1  H2  EPW O   H1  
H2  EPW O   H1  H2  EPW O   H1  H2  EPW O   H1  H2  EPW O   H1  H2  EPW O   H1  
H2  EPW O   H1  H2  EPW O   H1  H2  EPW O   H1  H2  EPW O   H1  H2  EPW O   H1  
H2  EPW O   H1  H2  EPW O   H1  H2  EPW O   H1  H2  EPW O   H1  H2  EPW O   H1  
H2  EPW O   H1  H2  EPW O   H1  H2  EPW O   H1  H2  EPW O   H1  H2  EPW O   H1  
H2  EPW O   H1  H2  EPW O   H1  H2  EPW O   H1  H2  EPW O   H1  H2  EPW O   H1  
H2  EPW O   H1  H2  EPW O   H1  H2  EPW O   H1  H2  EPW O   H1  H2  EPW O   H1  
H2  EPW O   H1  H2  EPW O   H1  H2  EPW O   H1  H2  EPW O   H1  H2  EPW O   H1  
H2  EPW O   H1  H2  EPW O   H1  H2  EPW O   H1  H2  EPW O   H1  H2  EPW O   H1  
H2  EPW O   H1  H2  EPW O   H1  H2  EPW O   H1  H2  EPW O   H1  H2  EPW O   H1  
H2  EPW O   H1  H2  EPW O   H1  H2  EPW O   H1  H2  EPW O   H1  H2  EPW O   H1  
H2  EPW O   H1  H2  EPW O   H1  H2  EPW O   H1  H2  EPW O   H1  H2  EPW O   H1  
H2  EPW O   H1  H2  EPW O   H1  H2  EPW O   H1  H2  EPW O   H1  H2  EPW O   H1  
H2  EPW O   H1  H2  EPW O   H1  H2  EPW O   H1  H2  EPW O   H1  H2  EPW O   H1  
H2  EPW O   H1  H2  EPW O   H1  H2  EPW O   H1  H2  EPW O   H1  H2  EPW O   H1  
H2  EPW O   H1  H2  EPW O   H1  H2  EPW O   H1  H2  EPW O   H1  H2  EPW O   H1  
H2  EPW O   H1  H2  EPW O   H1  H2  EPW O   H1  H2  EPW O   H1  H2  EPW O   H1  
H2  EPW O   H1  H2  EPW O   H1  H2  EPW O   H1  H2  EPW O   H1  H2  EPW O   H1  
H2  EPW O   H1  H2  EPW O   H1  H2  EPW O   H1  H2  EPW O   H1  H2  EPW O   H1  
H2  EPW O   H1  H2  EPW O   H1  H2  EPW O   H1  H2  EPW O   H1  H2  EPW O   H1  
H2  EPW O   H1  H2  EPW O   H1  H2  EPW O   H1  H2  EPW O   H1  H2  EPW O   H1  
H2  EPW O   H1  H2  EPW O   H1  H2  EPW O   H1  H2  EPW O   H1  H2  EPW O   H1  
H2  EPW O   H1  H2  EPW O   H1  H2  EPW O   H1  H2  EPW O   H1  H2  EPW O   H1  
H2  EPW O   H1  H2  EPW O   H1  H2  EPW O   H1  H2  EPW O   H1  H2  EPW O   H1  
H2  EPW O   H1  H2  EPW O   H1  H2  EPW O   H1  H2  EPW O   H1  H2  EPW O   H1  
H2  EPW O   H1  H2  EPW O   H1  H2  EPW O   H1  H2  EPW O   H1  H2  EPW O   H1  
H2  EPW O   H1  H2  EPW O   H1  H2  EPW O   H1  H2  EPW O   H1  H2  EPW O   H1  
H2  EPW O   H1  H2  EPW O   H1  H2  EPW O   H1  H2  EPW O   H1  H2  EPW O   H1  
H2  EPW O   H1  H2  EPW O   H1  H2  EPW O   H1  H2  EPW O   H1  H2  EPW O   H1  
H2  EPW O   H1  H2  EPW O   H1  H2  EPW O   H1  H2  EPW O   H1  H2  EPW O   H1  
H2  EPW O   H1  H2  EPW O   H1  H2  EPW O   H1  H2  EPW O   H1  H2  EPW O   H1  
H2  EPW O   H1  H2  EPW O   H1  H2  EPW O   H1  H2  EPW O   H1  H2  EPW O   H1  
H2  EPW O   H1  H2  EPW O   H1  H2  EPW O   H1  H2  EPW O   H1  H2  EPW O   H1  
H2  EPW O   H1  H2  EPW O   H1  H2  EPW O   H1  H2  EPW O   H1  H2  EPW O   H1  
H2  EPW O   H1  H2  EPW O   H1  H2  EPW O   H1  H2  EPW O   H1  H2  EPW O   H1  
H2  EPW O   H1  H2  EPW O   H1  H2  EPW O   H1  H2  EPW O   H1  H2  EPW O   H1  
H2  EPW O   H1  H2  EPW O   H1  H2  EPW O   H1  H2  EPW O   H1  H2  EPW O   H1  
H2  EPW O   H1  H2  EPW O   H1  H2  EPW O   H1  H2  EPW O   H1  H2  EPW O   H1  
H2  EPW O   H1  H2  EPW O   H1  H2  EPW O   H1  H2  EPW O   H1  H2  EPW O   H1  
H2  EPW O   H1  H2  EPW O   H1  H2  EPW O   H1  H2  EPW O   H1  H2  EPW O   H1  
H2  EPW O   H1  H2  EPW O   H1  H2  EPW O   H1  H2  EPW O   H1  H2  EPW O   H1  
H2  EPW O   H1  H2  EPW O   H1  H2  EPW O   H1  H2  EPW O   H1  H2  EPW O   H1  
H2  EPW O   H1  H2  EPW O   H1  H2  EPW O   H1  H2  EPW O   H1  H2  EPW O   H1  
H2  EPW O   H1  H2  EPW O   H1  H2  EPW O   H1  H2  EPW O   H1  H2  EPW O   H1  
H2  EPW O   H1  H2  EPW O   H1  H2  EPW O   H1  H2  EPW O   H1  H2  EPW O   H1  
H2  EPW O   H1  H2  EPW O   H1  H2  EPW O   H1  H2  EPW O   H1  H2  EPW O   H1  
H2  EPW O   H1  H2  EPW O   H1  H2  EPW O   H1  H2  EPW O   H1  H2  EPW O   H1  
H2  EPW O   H1  H2  EPW O   H1  H2  EPW O   H1  H2  EPW O   H1  H2  EPW O   H1  
H2  EPW O   H1  H2  EPW O   H1  H2  EPW O   H1  H2  EPW O   H1  H2  EPW O   H1  
H2  EPW O   H1  H2  EPW O   H1  H2  EPW O   H1  H2  EPW O   H1  H2  EPW O   H1  
H2  EPW O   H1  H2  EPW O   H1  H2  EPW O   H1  H2  EPW O   H1  H2  EPW O   H1  
H2  EPW O   H1  H2  EPW O   H1  H2  EPW O   H1  H2  EPW O   H1  H2  EPW O   H1  
H2  EPW O   H1  H2  EPW O   H1  H2  EPW O   H1  H2  EPW O   H1  H2  EPW O   H1  
H2  EPW O   H1  H2  EPW O   H1  H2  EPW O   H1  H2  EPW O   H1  H2  EPW O   H1  
H2  EPW O   H1  H2  EPW O   H1  H2  EPW O   H1  H2  EPW O   H1  H2  EPW O   H1  
H2  EPW O   H1  H2  EPW O   H1  H2  EPW O   H1  H2  EPW O   H1  H2  EPW O   H1  
H2  EPW O   H1  H2  EPW O   H1  H2  EPW O   H1  H2  EPW O   H1  H2  EPW O   H1  
H2  EPW O   H1  H2  EPW O   H1  H2  EPW O   H1  H2  EPW O   H1  H2  EPW O   H1  
H2  EPW O   H1  H2  EPW O   H1  H2  EPW O   H1  H2  EPW O   H1  H2  EPW O   H1  
H2  EPW O   H1  H2  EPW O   H1  H2  EPW O   H1  H2  EPW O   H1  H2  EPW O   H1  
H2  EPW O   H1  H2  EPW O   H1  H2  EPW O   H1  H2  EPW O   H1  H2  EPW O   H1  
H2  EPW O   H1  H2  EPW O   H1  H2  EPW O   H1  H2  EPW O   H1  H2  EPW O   H1  
H2  EPW O   H1  H2  EPW O   H1  H2  EPW O   H1  H2  EPW O   H1  H2  EPW O   H1  
H2  EPW O   H1  H2  EPW O   H1  H2  EPW O   H1  H2  EPW O   H1  H2  EPW O   H1  
H2  EPW O   H1  H2  EPW O   H1  H2  EPW O   H1  H2  EPW O   H1  H2  EPW O   H1  
H2  EPW O   H1  H2  EPW O   H1  H2  EPW O   H1  H2  EPW O   H1  H2  EPW O   H1  
H2  EPW O   H1  H2  EPW O   H1  H2  EPW O   H1  H2  EPW O   H1  H2  EPW O   H1  
H2  EPW O   H1  H2  EPW O   H1  H2  EPW O   H1  H2  EPW O   H1  H2  EPW O   H1  
H2  EPW O   H1  H2  EPW O   H1  H2  EPW O   H1  H2  EPW O   H1  H2  EPW O   H1  
H2  EPW O   H1  H2  EPW O   H1  H2  EPW O   H1  H2  EPW O   H1  H2  EPW O   H1  
H2  EPW O   H1  H2  EPW O   H1  H2  EPW O   H1  H2  EPW O   H1  H2  EPW O   H1  
H2  EPW O   H1  H2  EPW O   H1  H2  EPW O   H1  H2  EPW O   H1  H2  EPW O   H1  
H2  EPW O   H1  H2  EPW O   H1  H2  EPW O   H1  H2  EPW O   H1  H2  EPW O   H1  
H2  EPW O   H1  H2  EPW O   H1  H2  EPW O   H1  H2  EPW O   H1  H2  EPW O   H1  
H2  EPW O   H1  H2  EPW O   H1  H2  EPW O   H1  H2  EPW O   H1  H2  EPW O   H1  
H2  EPW O   H1  H2  EPW O   H1  H2  EPW O   H1  H2  EPW O   H1  H2  EPW O   H1  
H2  EPW O   H1  H2  EPW O   H1  H2  EPW O   H1  H2  EPW O   H1  H2  EPW O   H1  
H2  EPW O   H1  H2  EPW O   H1  H2  EPW O   H1  H2  EPW O   H1  H2  EPW O   H1  
H2  EPW O   H1  H2  EPW O   H1  H2  EPW O   H1  H2  EPW O   H1  H2  EPW O   H1  
H2  EPW O   H1  H2  EPW O   H1  H2  EPW O   H1  H2  EPW O   H1  H2  EPW O   H1  
H2  EPW O   H1  H2  EPW O   H1  H2  EPW O   H1  H2  EPW O   H1  H2  EPW O   H1  
H2  EPW O   H1  H2  EPW O   H1  H2  EPW O   H1  H2  EPW O   H1  H2  EPW O   H1  
H2  EPW O   H1  H2  EPW O   H1  H2  EPW O   H1  H2  EPW O   H1  H2  EPW O   H1  
H2  EPW O   H1  H2  EPW O   H1  H2  EPW O   H1  H2  EPW O   H1  H2  EPW O   H1  
H2  EPW O   H1  H2  EPW O   H1  H2  EPW O   H1  H2  EPW O   H1  H2  EPW O   H1  
H2  EPW O   H1  H2  EPW O   H1  H2  EPW O   H1  H2  EPW O   H1  H2  EPW O   H1  
H2  EPW O   H1  H2  EPW O   H1  H2  EPW O   H1  H2  EPW O   H1  H2  EPW O   H1  
H2  EPW O   H1  H2  EPW O   H1  H2  EPW O   H1  H2  EPW O   H1  H2  EPW O   H1  
H2  EPW O   H1  H2  EPW O   H1  H2  EPW O   H1  H2  EPW O   H1  H2  EPW O   H1  
H2  EPW O   H1  H2  EPW O   H1  H2  EPW O   H1  H2  EPW O   H1  H2  EPW O   H1  
H2  EPW O   H1  H2  EPW O   H1  H2  EPW O   H1  H2  EPW O   H1  H2  EPW O   H1  
H2  EPW O   H1  H2  EPW O   H1  H2  EPW O   H1  H2  EPW O   H1  H2  EPW O   H1  
H2  EPW O   H1  H2  EPW O   H1  H2  EPW O   H1  H2  EPW O   H1  H2  EPW O   H1  
H2  EPW O   H1  H2  EPW O   H1  H2  EPW O   H1  H2  EPW O   H1  H2  EPW O   H1  
H2  EPW O   H1  H2  EPW O   H1  H2  EPW O   H1  H2  EPW O   H1  H2  EPW O   H1  
H2  EPW O   H1  H2  EPW O   H1  H2  EPW O   H1  H2  EPW O   H1  H2  EPW O   H1  
H2  EPW O   H1  H2  EPW O   H1  H2  EPW O   H1  H2  EPW O   H1  H2  EPW O   H1  
H2  EPW O   H1  H2  EPW O   H1  H2  EPW O   H1  H2  EPW O   H1  H2  EPW O   H1  
H2  EPW O   H1  H2  EPW O   H1  H2  EPW O   H1  H2  EPW O   H1  H2  EPW O   H1  
H2  EPW O   H1  H2  EPW O   H1  H2  EPW O   H1  H2  EPW O   H1  H2  EPW O   H1  
H2  EPW O   H1  H2  EPW O   H1  H2  EPW O   H1  H2  EPW O   H1  H2  EPW O   H1  
H2  EPW O   H1  H2  EPW O   H1  H2  EPW O   H1  H2  EPW O   H1  H2  EPW O   H1  
H2  EPW O   H1  H2  EPW O   H1  H2  EPW O   H1  H2  EPW O   H1  H2  EPW O   H1  
H2  EPW O   H1  H2  EPW O   H1  H2  EPW O   H1  H2  EPW O   H1  H2  EPW O   H1  
H2  EPW O   H1  H2  EPW O   H1  H2  EPW O   H1  H2  EPW O   H1  H2  EPW O   H1  
H2  EPW O   H1  H2  EPW O   H1  H2  EPW O   H1  H2  EPW O   H1  H2  EPW O   H1  
H2  EPW O   H1  H2  EPW O   H1  H2  EPW O   H1  H2  EPW O   H1  H2  EPW O   H1  
H2  EPW O   H1  H2  EPW O   H1  H2  EPW O   H1  H2  EPW O   H1  H2  EPW O   H1  
H2  EPW O   H1  H2  EPW O   H1  H2  EPW O   H1  H2  EPW O   H1  H2  EPW O   H1  
H2  EPW O   H1  H2  EPW O   H1  H2  EPW O   H1  H2  EPW O   H1  H2  EPW O   H1  
H2  EPW O   H1  H2  EPW O   H1  H2  EPW O   H1  H2  EPW O   H1  H2  EPW O   H1  
H2  EPW O   H1  H2  EPW O   H1  H2  EPW O   H1  H2  EPW O   H1  H2  EPW O   H1  
H2  EPW O   H1  H2  EPW O   H1  H2  EPW O   H1  H2  EPW O   H1  H2  EPW O   H1  
H2  EPW O   H1  H2  EPW O   H1  H2  EPW O   H1  H2  EPW O   H1  H2  EPW O   H1  
H2  EPW O   H1  H2  EPW O   H1  H2  EPW O   H1  H2  EPW O   H1  H2  EPW O   H1  
H2  EPW O   H1  H2  EPW O   H1  H2  EPW O   H1  H2  EPW O   H1  H2  EPW O   H1  
H2  EPW O   H1  H2  EPW O   H1  H2  EPW O   H1  H2  EPW O   H1  H2  EPW O   H1  
H2  EPW O   H1  H2  EPW O   H1  H2  EPW O   H1  H2  EPW O   H1  H2  EPW O   H1  
H2  EPW O   H1  H2  EPW O   H1  H2  EPW O   H1  H2  EPW O   H1  H2  EPW O   H1  
H2  EPW O   H1  H2  EPW O   H1  H2  EPW O   H1  H2  EPW O   H1  H2  EPW O   H1  
H2  EPW O   H1  H2  EPW O   H1  H2  EPW O   H1  H2  EPW O   H1  H2  EPW O   H1  
H2  EPW O   H1  H2  EPW O   H1  H2  EPW O   H1  H2  EPW O   H1  H2  EPW O   H1  
H2  EPW O   H1  H2  EPW O   H1  H2  EPW O   H1  H2  EPW O   H1  H2  EPW O   H1  
H2  EPW O   H1  H2  EPW O   H1  H2  EPW O   H1  H2  EPW O   H1  H2  EPW O   H1  
H2  EPW O   H1  H2  EPW O   H1  H2  EPW O   H1  H2  EPW O   H1  H2  EPW O   H1  
H2  EPW O   H1  H2  EPW O   H1  H2  EPW O   H1  H2  EPW O   H1  H2  EPW O   H1  
H2  EPW O   H1  H2  EPW O   H1  H2  EPW O   H1  H2  EPW O   H1  H2  EPW O   H1  
H2  EPW O   H1  H2  EPW O   H1  H2  EPW O   H1  H2  EPW O   H1  H2  EPW O   H1  
H2  EPW O   H1  H2  EPW O   H1  H2  EPW O   H1  H2  EPW O   H1  H2  EPW O   H1  
H2  EPW O   H1  H2  EPW O   H1  H2  EPW O   H1  H2  EPW O   H1  H2  EPW O   H1  
H2  EPW O   H1  H2  EPW O   H1  H2  EPW O   H1  H2  EPW O   H1  H2  EPW O   H1  
H2  EPW O   H1  H2  EPW O   H1  H2  EPW O   H1  H2  EPW O   H1  H2  EPW O   H1  
H2  EPW O   H1  H2  EPW O   H1  H2  EPW O   H1  H2  EPW O   H1  H2  EPW O   H1  
H2  EPW O   H1  H2  EPW O   H1  H2  EPW O   H1  H2  EPW O   H1  H2  EPW O   H1  
H2  EPW O   H1  H2  EPW O   H1  H2  EPW O   H1  H2  EPW O   H1  H2  EPW O   H1  
H2  EPW O   H1  H2  EPW O   H1  H2  EPW O   H1  H2  EPW O   H1  H2  EPW O   H1  
H2  EPW O   H1  H2  EPW O   H1  H2  EPW O   H1  H2  EPW O   H1  H2  EPW O   H1  
H2  EPW O   H1  H2  EPW O   H1  H2  EPW O   H1  H2  EPW O   H1  H2  EPW O   H1  
H2  EPW O   H1  H2  EPW O   H1  H2  EPW O   H1  H2  EPW O   H1  H2  EPW O   H1  
H2  EPW O   H1  H2  EPW O   H1  H2  EPW O   H1  H2  EPW O   H1  H2  EPW O   H1  
H2  EPW O   H1  H2  EPW O   H1  H2  EPW O   H1  H2  EPW O   H1  H2  EPW O   H1  
H2  EPW O   H1  H2  EPW O   H1  H2  EPW O   H1  H2  EPW O   H1  H2  EPW O   H1  
H2  EPW O   H1  H2  EPW O   H1  H2  EPW O   H1  H2  EPW O   H1  H2  EPW O   H1  
H2  EPW O   H1  H2  EPW O   H1  H2  EPW O   H1  H2  EPW O   H1  H2  EPW O   H1  
H2  EPW O   H1  H2  EPW O   H1  H2  EPW O   H1  H2  EPW O   H1  H2  EPW O   H1  
H2  EPW O   H1  H2  EPW O   H1  H2  EPW O   H1  H2  EPW O   H1  H2  EPW O   H1  
H2  EPW O   H1  H2  EPW O   H1  H2  EPW O   H1  H2  EPW O   H1  H2  EPW O   H1  
H2  EPW O   H1  H2  EPW O   H1  H2  EPW O   H1  H2  EPW O   H1  H2  EPW O   H1  
H2  EPW O   H1  H2  EPW O   H1  H2  EPW O   H1  H2  EPW O   H1  H2  EPW O   H1  
H2  EPW O   H1  H2  EPW O   H1  H2  EPW O   H1  H2  EPW O   H1  H2  EPW O   H1  
H2  EPW O   H1  H2  EPW O   H1  H2  EPW O   H1  H2  EPW O   H1  H2  EPW O   H1  
H2  EPW O   H1  H2  EPW O   H1  H2  EPW O   H1  H2  EPW O   H1  H2  EPW O   H1  
H2  EPW O   H1  H2  EPW O   H1  H2  EPW O   H1  H2  EPW O   H1  H2  EPW O   H1  
H2  EPW O   H1  H2  EPW O   H1  H2  EPW O   H1  H2  EPW O   H1  H2  EPW O   H1  
H2  EPW O   H1  H2  EPW O   H1  H2  EPW O   H1  H2  EPW O   H1  H2  EPW O   H1  
H2  EPW O   H1  H2  EPW O   H1  H2  EPW O   H1  H2  EPW O   H1  H2  EPW O   H1  
H2  EPW O   H1  H2  EPW O   H1  H2  EPW O   H1  H2  EPW O   H1  H2  EPW O   H1  
H2  EPW O   H1  H2  EPW O   H1  H2  EPW O   H1  H2  EPW O   H1  H2  EPW O   H1  
H2  EPW O   H1  H2  EPW O   H1  H2  EPW O   H1  H2  EPW O   H1  H2  EPW O   H1  
H2  EPW O   H1  H2  EPW O   H1  H2  EPW O   H1  H2  EPW O   H1  H2  EPW O   H1  
H2  EPW O   H1  H2  EPW O   H1  H2  EPW O   H1  H2  EPW O   H1  H2  EPW O   H1  
H2  EPW O   H1  H2  EPW O   H1  H2  EPW O   H1  H2  EPW O   H1  H2  EPW O   H1  
H2  EPW O   H1  H2  EPW O   H1  H2  EPW O   H1  H2  EPW O   H1  H2  EPW O   H1  
H2  EPW O   H1  H2  EPW O   H1  H2  EPW O   H1  H2  EPW O   H1  H2  EPW O   H1  
H2  EPW O   H1  H2  EPW O   H1  H2  EPW O   H1  H2  EPW O   H1  H2  EPW O   H1  
H2  EPW O   H1  H2  EPW O   H1  H2  EPW O   H1  H2  EPW O   H1  H2  EPW O   H1  
H2  EPW O   H1  H2  EPW O   H1  H2  EPW O   H1  H2  EPW O   H1  H2  EPW O   H1  
H2  EPW O   H1  H2  EPW O   H1  H2  EPW O   H1  H2  EPW O   H1  H2  EPW O   H1  
H2  EPW O   H1  H2  EPW O   H1  H2  EPW O   H1  H2  EPW O   H1  H2  EPW O   H1  
H2  EPW O   H1  H2  EPW O   H1  H2  EPW O   H1  H2  EPW O   H1  H2  EPW O   H1  
H2  EPW 
%FLAG CHARGE                                                                    
%FORMAT(5E16.8)                                                                 
  1.82223000E+01 -1.82223000E+01  1.82223000E+01 -1.82223000E+01  1.82223000E+01
 -1.82223000E+01  1.82223000E+01 -1.82223000E+01  1.82223000E+01 -1.82223000E+01
 -1.06072008E+01  5.49220122E+00 -2.07187551E+00  5.69446875E+00 -7.19780850E+00
 -1.07803127E+01  3.71006028E+00 -1.00951542E+00 -4.28770719E+00 -1.84409676E+00
 -3.69001575E+00 -1.64182923E+00 -9.13666122E+00  5.13504414E+00  6.17371524E+00
 -1.04031111E+01  1.79489655E+00 -6.73496208E+00  4.93459884E+00  7.00647435E+00
  7.03745226E+00  2.15387586E+00  2.90099016E+00  2.52014409E+00  2.62765566E+00
  2.15023140E+00  3.51325944E+00  6.56002800E+00  0.00000000E+00  9.55249411E+00
  9.55249411E+00 -1.91049882E+01  0.00000000E+00  9.55249411E+00  9.55249411E+00
 -1.91049882E+01  0.00000000E+00  9.55249411E+00  9.55249411E+00 -1.91049882E+01
  0.00000000E+00  9.55249411E+00  9.55249411E+00 -1.91049882E+01  0.00000000E+00
  9.55249411E+00  9.55249411E+00 -1.91049882E+01  0.00000000E+00  9.55249411E+00
  9.55249411E+00 -1.91049882E+01  0.00000000E+00  9.55249411E+00  9.55249411E+00
 -1.91049882E+01  0.00000000E+00  9.55249411E+00  9.55249411E+00 -1.91049882E+01
  0.00000000E+00  9.55249411E+00  9.55249411E+00 -1.91049882E+01  0.00000000E+00
  9.55249411E+00  9.55249411E+00 -1.91049882E+01  0.00000000E+00  9.55249411E+00
  9.55249411E+00 -1.91049882E+01  0.00000000E+00  9.55249411E+00  9.55249411E+00
 -1.91049882E+01  0.00000000E+00  9.55249411E+00  9.55249411E+00 -1.91049882E+01
  0.00000000E+00  9.55249411E+00  9.55249411E+00 -1.91049882E+01  0.00000000E+00
  9.55249411E+00  9.55249411E+00 -1.91049882E+01  0.00000000E+00  9.55249411E+00
  9.55249411E+00 -1.91049882E+01  0.00000000E+00  9.55249411E+00  9.55249411E+00
 -1.91049882E+01  0.00000000E+00  9.55249411E+00  9.55249411E+00 -1.91049882E+01
  0.00000000E+00  9.55249411E+00  9.55249411E+00 -1.91049882E+01  0.00000000E+00
  9.55249411E+00  9.55249411E+00 -1.91049882E+01  0.00000000E+00  9.55249411E+00
  9.55249411E+00 -1.91049882E+01  0.00000000E+00  9.55249411E+00  9.55249411E+00
 -1.91049882E+01  0.00000000E+00  9.55249411E+00  9.55249411E+00 -1.91049882E+01
  0.00000000E+00  9.55249411E+00  9.55249411E+00 -1.91049882E+01  0.00000000E+00
  9.55249411E+00  9.55249411E+00 -1.91049882E+01  0.00000000E+00  9.55249411E+00
  9.55249411E+00 -1.91049882E+01  0.00000000E+00  9.55249411E+00  9.55249411E+00
 -1.91049882E+01  0.00000000E+00  9.55249411E+00  9.55249411E+00 -1.91049882E+01
  0.00000000E+00  9.55249411E+00  9.55249411E+00 -1.91049882E+01  0.00000000E+00
  9.55249411E+00  9.55249411E+00 -1.91049882E+01  0.00000000E+00  9.55249411E+00
  9.55249411E+00 -1.91049882E+01  0.00000000E+00  9.55249411E+00  9.55249411E+00
 -1.91049882E+01  0.00000000E+00  9.55249411E+00  9.55249411E+00 -1.91049882E+01
  0.00000000E+00  9.55249411E+00  9.55249411E+00 -1.91049882E+01  0.00000000E+00
  9.55249411E+00  9.55249411E+00 -1.91049882E+01  0.00000000E+00  9.55249411E+00
  9.55249411E+00 -1.91049882E+01  0.00000000E+00  9.55249411E+00  9.55249411E+00
 -1.91049882E+01  0.00000000E+00  9.55249411E+00  9.55249411E+00 -1.91049882E+01
  0.00000000E+00  9.55249411E+00  9.55249411E+00 -1.91049882E+01  0.00000000E+00
  9.55249411E+00  9.55249411E+00 -1.91049882E+01  0.00000000E+00  9.55249411E+00
  9.55249411E+00 -1.91049882E+01  0.00000000E+00  9.55249411E+00  9.55249411E+00
 -1.91049882E+01  0.00000000E+00  9.55249411E+00  9.55249411E+00 -1.91049882E+01
  0.00000000E+00  9.55249411E+00  9.55249411E+00 -1.91049882E+01  0.00000000E+00
  9.55249411E+00  9.55249411E+00 -1.91049882E+01  0.00000000E+00  9.55249411E+00
  9.55249411E+00 -1.91049882E+01  0.00000000E+00  9.55249411E+00  9.55249411E+00
 -1.91049882E+01  0.00000000E+00  9.55249411E+00  9.55249411E+00 -1.91049882E+01
  0.00000000E+00  9.55249411E+00  9.55249411E+00 -1.91049882E+01  0.00000000E+00
  9.55249411E+00  9.55249411E+00 -1.91049882E+01  0.00000000E+00  9.55249411E+00
  9.55249411E+00 -1.91049882E+01  0.00000000E+00  9.55249411E+00  9.55249411E+00
 -1.91049882E+01  0.00000000E+00  9.55249411E+00  9.55249411E+00 -1.91049882E+01
  0.00000000E+00  9.55249411E+00  9.55249411E+00 -1.91049882E+01  0.00000000E+00
  9.55249411E+00  9.55249411E+00 -1.91049882E+01  0.00000000E+00  9.55249411E+00
  9.55249411E+00 -1.91049882E+01  0.00000000E+00  9.55249411E+00  9.55249411E+00
 -1.91049882E+01  0.00000000E+00  9.55249411E+00  9.55249411E+00 -1.91049882E+01
  0.00000000E+00  9.55249411E+00  9.55249411E+00 -1.91049882E+01  0.00000000E+00
  9.55249411E+00  9.55249411E+00 -1.91049882E+01  0.00000000E+00  9.55249411E+00
  9.55249411E+00 -1.91049882E+01  0.00000000E+00  9.55249411E+00  9.55249411E+00
 -1.91049882E+01  0.00000000E+00  9.55249411E+00  9.55249411E+00 -1.91049882E+01
  0.00000000E+00  9.55249411E+00  9.55249411E+00 -1.91049882E+01  0.00000000E+00
  9.55249411E+00  9.55249411E+00 -1.91049882E+01  0.00000000E+00  9.55249411E+00
  9.55249411E+00 -1.91049882E+01  0.00000000E+00  9.55249411E+00  9.55249411E+00
 -1.91049882E+01  0.00000000E+00  9.55249411E+00  9.55249411E+00 -1.91049882E+01
  0.00000000E+00  9.55249411E+00  9.55249411E+00 -1.91049882E+01  0.00000000E+00
  9.55249411E+00  9.55249411E+00 -1.91049882E+01  0.00000000E+00  9.55249411E+00
  9.55249411E+00 -1.91049882E+01  0.00000000E+00  9.55249411E+00  9.55249411E+00
 -1.91049882E+01  0.00000000E+00  9.55249411E+00  9.55249411E+00 -1.91049882E+01
  0.00000000E+00  9.55249411E+00  9.55249411E+00 -1.91049882E+01  0.00000000E+00
  9.55249411E+00  9.55249411E+00 -1.91049882E+01  0.00000000E+00  9.55249411E+00
  9.55249411E+00 -1.91049882E+01  0.00000000E+00  9.55249411E+00  9.55249411E+00
 -1.91049882E+01  0.00000000E+00  9.55249411E+00  9.55249411E+00 -1.91049882E+01
  0.00000000E+00  9.55249411E+00  9.55249411E+00 -1.91049882E+01  0.00000000E+00
  9.55249411E+00  9.55249411E+00 -1.91049882E+01  0.00000000E+00  9.55249411E+00
  9.55249411E+00 -1.91049882E+01  0.00000000E+00  9.55249411E+00  9.55249411E+00
 -1.91049882E+01  0.00000000E+00  9.55249411E+00  9.55249411E+00 -1.91049882E+01
  0.00000000E+00  9.55249411E+00  9.55249411E+00 -1.91049882E+01  0.00000000E+00
  9.55249411E+00  9.55249411E+00 -1.91049882E+01  0.00000000E+00  9.55249411E+00
  9.55249411E+00 -1.91049882E+01  0.00000000E+00  9.55249411E+00  9.55249411E+00
 -1.91049882E+01  0.00000000E+00  9.55249411E+00  9.55249411E+00 -1.91049882E+01
  0.00000000E+00  9.55249411E+00  9.55249411E+00 -1.91049882E+01  0.00000000E+00
  9.55249411E+00  9.55249411E+00 -1.91049882E+01  0.00000000E+00  9.55249411E+00
  9.55249411E+00 -1.91049882E+01  0.00000000E+00  9.55249411E+00  9.55249411E+00
 -1.91049882E+01  0.00000000E+00  9.55249411E+00  9.55249411E+00 -1.91049882E+01
  0.00000000E+00  9.55249411E+00  9.55249411E+00 -1.91049882E+01  0.00000000E+00
  9.55249411E+00  9.55249411E+00 -1.91049882E+01  0.00000000E+00  9.55249411E+00
  9.55249411E+00 -1.91049882E+01  0.00000000E+00  9.55249411E+00  9.55249411E+00
 -1.91049882E+01  0.00000000E+00  9.55249411E+00  9.55249411E+00 -1.91049882E+01
  0.00000000E+00  9.55249411E+00  9.55249411E+00 -1.91049882E+01  0.00000000E+00
  9.55249411E+00  9.55249411E+00 -1.91049882E+01  0.00000000E+00  9.55249411E+00
  9.55249411E+00 -1.91049882E+01  0.00000000E+00  9.55249411E+00  9.55249411E+00
 -1.91049882E+01  0.00000000E+00  9.55249411E+00  9.55249411E+00 -1.91049882E+01
  0.00000000E+00  9.55249411E+00  9.55249411E+00 -1.91049882E+01  0.00000000E+00
  9.55249411E+00  9.55249411E+00 -1.91049882E+01  0.00000000E+00  9.55249411E+00
  9.55249411E+00 -1.91049882E+01  0.00000000E+00  9.55249411E+00  9.55249411E+00
 -1.91049882E+01  0.00000000E+00  9.55249411E+00  9.55249411E+00 -1.91049882E+01
  0.00000000E+00  9.55249411E+00  9.55249411E+00 -1.91049882E+01  0.00000000E+00
  9.55249411E+00  9.55249411E+00 -1.91049882E+01  0.00000000E+00  9.55249411E+00
  9.55249411E+00 -1.91049882E+01  0.00000000E+00  9.55249411E+00  9.55249411E+00
 -1.91049882E+01  0.00000000E+00  9.55249411E+00  9.55249411E+00 -1.91049882E+01
  0.00000000E+00  9.55249411E+00  9.55249411E+00 -1.91049882E+01  0.00000000E+00
  9.55249411E+00  9.55249411E+00 -1.91049882E+01  0.00000000E+00  9.55249411E+00
  9.55249411E+00 -1.91049882E+01  0.00000000E+00  9.55249411E+00  9.55249411E+00
 -1.91049882E+01  0.00000000E+00  9.55249411E+00  9.55249411E+00 -1.91049882E+01
  0.00000000E+00  9.55249411E+00  9.55249411E+00 -1.91049882E+01  0.00000000E+00
  9.55249411E+00  9.55249411E+00 -1.91049882E+01  0.00000000E+00  9.55249411E+00
  9.55249411E+00 -1.91049882E+01  0.00000000E+00  9.55249411E+00  9.55249411E+00
 -1.91049882E+01  0.00000000E+00  9.55249411E+00  9.55249411E+00 -1.91049882E+01
  0.00000000E+00  9.55249411E+00  9.55249411E+00 -1.91049882E+01  0.00000000E+00
  9.55249411E+00  9.55249411E+00 -1.91049882E+01  0.00000000E+00  9.55249411E+00
  9.55249411E+00 -1.91049882E+01  0.00000000E+00  9.55249411E+00  9.55249411E+00
 -1.91049882E+01  0.00000000E+00  9.55249411E+00  9.55249411E+00 -1.91049882E+01
  0.00000000E+00  9.55249411E+00  9.55249411E+00 -1.91049882E+01  0.00000000E+00
  9.55249411E+00  9.55249411E+00 -1.91049882E+01  0.00000000E+00  9.55249411E+00
  9.55249411E+00 -1.91049882E+01  0.00000000E+00  9.55249411E+00  9.55249411E+00
 -1.91049882E+01  0.00000000E+00  9.55249411E+00  9.55249411E+00 -1.91049882E+01
  0.00000000E+00  9.55249411E+00  9.55249411E+00 -1.91049882E+01  0.00000000E+00
  9.55249411E+00  9.55249411E+00 -1.91049882E+01  0.00000000E+00  9.55249411E+00
  9.55249411E+00 -1.91049882E+01  0.00000000E+00  9.55249411E+00  9.55249411E+00
 -1.91049882E+01  0.00000000E+00  9.55249411E+00  9.55249411E+00 -1.91049882E+01
  0.00000000E+00  9.55249411E+00  9.55249411E+00 -1.91049882E+01  0.00000000E+00
  9.55249411E+00  9.55249411E+00 -1.91049882E+01  0.00000000E+00  9.55249411E+00
  9.55249411E+00 -1.91049882E+01  0.00000000E+00  9.55249411E+00  9.55249411E+00
 -1.91049882E+01  0.00000000E+00  9.55249411E+00  9.55249411E+00 -1.91049882E+01
  0.00000000E+00  9.55249411E+00  9.55249411E+00 -1.91049882E+01  0.00000000E+00
  9.55249411E+00  9.55249411E+00 -1.91049882E+01  0.00000000E+00  9.55249411E+00
  9.55249411E+00 -1.91049882E+01  0.00000000E+00  9.55249411E+00  9.55249411E+00
 -1.91049882E+01  0.00000000E+00  9.55249411E+00  9.55249411E+00 -1.91049882E+01
  0.00000000E+00  9.55249411E+00  9.55249411E+00 -1.91049882E+01  0.00000000E+00
  9.55249411E+00  9.55249411E+00 -1.91049882E+01  0.00000000E+00  9.55249411E+00
  9.55249411E+00 -1.91049882E+01  0.00000000E+00  9.55249411E+00  9.55249411E+00
 -1.91049882E+01  0.00000000E+00  9.55249411E+00  9.55249411E+00 -1.91049882E+01
  0.00000000E+00  9.55249411E+00  9.55249411E+00 -1.91049882E+01  0.00000000E+00
  9.55249411E+00  9.55249411E+00 -1.91049882E+01  0.00000000E+00  9.55249411E+00
  9.55249411E+00 -1.91049882E+01  0.00000000E+00  9.55249411E+00  9.55249411E+00
 -1.91049882E+01  0.00000000E+00  9.55249411E+00  9.55249411E+00 -1.91049882E+01
  0.00000000E+00  9.55249411E+00  9.55249411E+00 -1.91049882E+01  0.00000000E+00
  9.55249411E+00  9.55249411E+00 -1.91049882E+01  0.00000000E+00  9.55249411E+00
  9.55249411E+00 -1.91049882E+01  0.00000000E+00  9.55249411E+00  9.55249411E+00
 -1.91049882E+01  0.00000000E+00  9.55249411E+00  9.55249411E+00 -1.91049882E+01
  0.00000000E+00  9.55249411E+00  9.55249411E+00 -1.91049882E+01  0.00000000E+00
  9.55249411E+00  9.55249411E+00 -1.91049882E+01  0.00000000E+00  9.55249411E+00
  9.55249411E+00 -1.91049882E+01  0.00000000E+00  9.55249411E+00  9.55249411E+00
 -1.91049882E+01  0.00000000E+00  9.55249411E+00  9.55249411E+00 -1.91049882E+01
  0.00000000E+00  9.55249411E+00  9.55249411E+00 -1.91049882E+01  0.00000000E+00
  9.55249411E+00  9.55249411E+00 -1.91049882E+01  0.00000000E+00  9.55249411E+00
  9.55249411E+00 -1.91049882E+01  0.00000000E+00  9.55249411E+00  9.55249411E+00
 -1.91049882E+01  0.00000000E+00  9.55249411E+00  9.55249411E+00 -1.91049882E+01
  0.00000000E+00  9.55249411E+00  9.55249411E+00 -1.91049882E+01  0.00000000E+00
  9.55249411E+00  9.55249411E+00 -1.91049882E+01  0.00000000E+00  9.55249411E+00
  9.55249411E+00 -1.91049882E+01  0.00000000E+00  9.55249411E+00  9.55249411E+00
 -1.91049882E+01  0.00000000E+00  9.55249411E+00  9.55249411E+00 -1.91049882E+01
  0.00000000E+00  9.55249411E+00  9.55249411E+00 -1.91049882E+01  0.00000000E+00
  9.55249411E+00  9.55249411E+00 -1.91049882E+01  0.00000000E+00  9.55249411E+00
  9.55249411E+00 -1.91049882E+01  0.00000000E+00  9.55249411E+00  9.55249411E+00
 -1.91049882E+01  0.00000000E+00  9.55249411E+00  9.55249411E+00 -1.91049882E+01
  0.00000000E+00  9.55249411E+00  9.55249411E+00 -1.91049882E+01  0.00000000E+00
  9.55249411E+00  9.55249411E+00 -1.91049882E+01  0.00000000E+00  9.55249411E+00
  9.55249411E+00 -1.91049882E+01  0.00000000E+00  9.55249411E+00  9.55249411E+00
 -1.91049882E+01  0.00000000E+00  9.55249411E+00  9.55249411E+00 -1.91049882E+01
  0.00000000E+00  9.55249411E+00  9.55249411E+00 -1.91049882E+01  0.00000000E+00
  9.55249411E+00  9.55249411E+00 -1.91049882E+01  0.00000000E+00  9.55249411E+00
  9.55249411E+00 -1.91049882E+01  0.00000000E+00  9.55249411E+00  9.55249411E+00
 -1.91049882E+01  0.00000000E+00  9.55249411E+00  9.55249411E+00 -1.91049882E+01
  0.00000000E+00  9.55249411E+00  9.55249411E+00 -1.91049882E+01  0.00000000E+00
  9.55249411E+00  9.55249411E+00 -1.91049882E+01  0.00000000E+00  9.55249411E+00
  9.55249411E+00 -1.91049882E+01  0.00000000E+00  9.55249411E+00  9.55249411E+00
 -1.91049882E+01  0.00000000E+00  9.55249411E+00  9.55249411E+00 -1.91049882E+01
  0.00000000E+00  9.55249411E+00  9.55249411E+00 -1.91049882E+01  0.00000000E+00
  9.55249411E+00  9.55249411E+00 -1.91049882E+01  0.00000000E+00  9.55249411E+00
  9.55249411E+00 -1.91049882E+01  0.00000000E+00  9.55249411E+00  9.55249411E+00
 -1.91049882E+01  0.00000000E+00  9.55249411E+00  9.55249411E+00 -1.91049882E+01
  0.00000000E+00  9.55249411E+00  9.55249411E+00 -1.91049882E+01  0.00000000E+00
  9.55249411E+00  9.55249411E+00 -1.91049882E+01  0.00000000E+00  9.55249411E+00
  9.55249411E+00 -1.91049882E+01  0.00000000E+00  9.55249411E+00  9.55249411E+00
 -1.91049882E+01  0.00000000E+00  9.55249411E+00  9.55249411E+00 -1.91049882E+01
  0.00000000E+00  9.55249411E+00  9.55249411E+00 -1.91049882E+01  0.00000000E+00
  9.55249411E+00  9.55249411E+00 -1.91049882E+01  0.00000000E+00  9.55249411E+00
  9.55249411E+00 -1.91049882E+01  0.00000000E+00  9.55249411E+00  9.55249411E+00
 -1.91049882E+01  0.00000000E+00  9.55249411E+00  9.55249411E+00 -1.91049882E+01
  0.00000000E+00  9.55249411E+00  9.55249411E+00 -1.91049882E+01  0.00000000E+00
  9.55249411E+00  9.55249411E+00 -1.91049882E+01  0.00000000E+00  9.55249411E+00
  9.55249411E+00 -1.91049882E+01  0.00000000E+00  9.55249411E+00  9.55249411E+00
 -1.91049882E+01  0.00000000E+00  9.55249411E+00  9.55249411E+00 -1.91049882E+01
  0.00000000E+00  9.55249411E+00  9.55249411E+00 -1.91049882E+01  0.00000000E+00
  9.55249411E+00  9.55249411E+00 -1.91049882E+01  0.00000000E+00  9.55249411E+00
  9.55249411E+00 -1.91049882E+01  0.00000000E+00  9.55249411E+00  9.55249411E+00
 -1.91049882E+01  0.00000000E+00  9.55249411E+00  9.55249411E+00 -1.91049882E+01
  0.00000000E+00  9.55249411E+00  9.55249411E+00 -1.91049882E+01  0.00000000E+00
  9.55249411E+00  9.55249411E+00 -1.91049882E+01  0.00000000E+00  9.55249411E+00
  9.55249411E+00 -1.91049882E+01  0.00000000E+00  9.55249411E+00  9.55249411E+00
 -1.91049882E+01  0.00000000E+00  9.55249411E+00  9.55249411E+00 -1.91049882E+01
  0.00000000E+00  9.55249411E+00  9.55249411E+00 -1.91049882E+01  0.00000000E+00
  9.55249411E+00  9.55249411E+00 -1.91049882E+01  0.00000000E+00  9.55249411E+00
  9.55249411E+00 -1.91049882E+01  0.00000000E+00  9.55249411E+00  9.55249411E+00
 -1.91049882E+01  0.00000000E+00  9.55249411E+00  9.55249411E+00 -1.91049882E+01
  0.00000000E+00  9.55249411E+00  9.55249411E+00 -1.91049882E+01  0.00000000E+00
  9.55249411E+00  9.55249411E+00 -1.91049882E+01  0.00000000E+00  9.55249411E+00
  9.55249411E+00 -1.91049882E+01  0.00000000E+00  9.55249411E+00  9.55249411E+00
 -1.91049882E+01  0.00000000E+00  9.55249411E+00  9.55249411E+00 -1.91049882E+01
  0.00000000E+00  9.55249411E+00  9.55249411E+00 -1.91049882E+01  0.00000000E+00
  9.55249411E+00  9.55249411E+00 -1.91049882E+01  0.00000000E+00  9.55249411E+00
  9.55249411E+00 -1.91049882E+01  0.00000000E+00  9.55249411E+00  9.55249411E+00
 -1.91049882E+01  0.00000000E+00  9.55249411E+00  9.55249411E+00 -1.91049882E+01
  0.00000000E+00  9.55249411E+00  9.55249411E+00 -1.91049882E+01  0.00000000E+00
  9.55249411E+00  9.55249411E+00 -1.91049882E+01  0.00000000E+00  9.55249411E+00
  9.55249411E+00 -1.91049882E+01  0.00000000E+00  9.55249411E+00  9.55249411E+00
 -1.91049882E+01  0.00000000E+00  9.55249411E+00  9.55249411E+00 -1.91049882E+01
  0.00000000E+00  9.55249411E+00  9.55249411E+00 -1.91049882E+01  0.00000000E+00
  9.55249411E+00  9.55249411E+00 -1.91049882E+01  0.00000000E+00  9.55249411E+00
  9.55249411E+00 -1.91049882E+01  0.00000000E+00  9.55249411E+00  9.55249411E+00
 -1.91049882E+01  0.00000000E+00  9.55249411E+00  9.55249411E+00 -1.91049882E+01
  0.00000000E+00  9.55249411E+00  9.55249411E+00 -1.91049882E+01  0.00000000E+00
  9.55249411E+00  9.55249411E+00 -1.91049882E+01  0.00000000E+00  9.55249411E+00
  9.55249411E+00 -1.91049882E+01  0.00000000E+00  9.55249411E+00  9.55249411E+00
 -1.91049882E+01  0.00000000E+00  9.55249411E+00  9.55249411E+00 -1.91049882E+01
  0.00000000E+00  9.55249411E+00  9.55249411E+00 -1.91049882E+01  0.00000000E+00
  9.55249411E+00  9.55249411E+00 -1.91049882E+01  0.00000000E+00  9.55249411E+00
  9.55249411E+00 -1.91049882E+01  0.00000000E+00  9.55249411E+00  9.55249411E+00
 -1.91049882E+01  0.00000000E+00  9.55249411E+00  9.55249411E+00 -1.91049882E+01
  0.00000000E+00  9.55249411E+00  9.55249411E+00 -1.91049882E+01  0.00000000E+00
  9.55249411E+00  9.55249411E+00 -1.91049882E+01  0.00000000E+00  9.55249411E+00
  9.55249411E+00 -1.91049882E+01  0.00000000E+00  9.55249411E+00  9.55249411E+00
 -1.91049882E+01  0.00000000E+00  9.55249411E+00  9.55249411E+00 -1.91049882E+01
  0.00000000E+00  9.55249411E+00  9.55249411E+00 -1.91049882E+01  0.00000000E+00
  9.55249411E+00  9.55249411E+00 -1.91049882E+01  0.00000000E+00  9.55249411E+00
  9.55249411E+00 -1.91049882E+01  0.00000000E+00  9.55249411E+00  9.55249411E+00
 -1.91049882E+01  0.00000000E+00  9.55249411E+00  9.55249411E+00 -1.91049882E+01
  0.00000000E+00  9.55249411E+00  9.55249411E+00 -1.91049882E+01  0.00000000E+00
  9.55249411E+00  9.55249411E+00 -1.91049882E+01  0.00000000E+00  9.55249411E+00
  9.55249411E+00 -1.91049882E+01  0.00000000E+00  9.55249411E+00  9.55249411E+00
 -1.91049882E+01  0.00000000E+00  9.55249411E+00  9.55249411E+00 -1.91049882E+01
  0.00000000E+00  9.55249411E+00  9.55249411E+00 -1.91049882E+01  0.00000000E+00
  9.55249411E+00  9.55249411E+00 -1.91049882E+01  0.00000000E+00  9.55249411E+00
  9.55249411E+00 -1.91049882E+01  0.00000000E+00  9.55249411E+00  9.55249411E+00
 -1.91049882E+01  0.00000000E+00  9.55249411E+00  9.55249411E+00 -1.91049882E+01
  0.00000000E+00  9.55249411E+00  9.55249411E+00 -1.91049882E+01  0.00000000E+00
  9.55249411E+00  9.55249411E+00 -1.91049882E+01  0.00000000E+00  9.55249411E+00
  9.55249411E+00 -1.91049882E+01  0.00000000E+00  9.55249411E+00  9.55249411E+00
 -1.91049882E+01  0.00000000E+00  9.55249411E+00  9.55249411E+00 -1.91049882E+01
  0.00000000E+00  9.55249411E+00  9.55249411E+00 -1.91049882E+01  0.00000000E+00
  9.55249411E+00  9.55249411E+00 -1.91049882E+01  0.00000000E+00  9.55249411E+00
  9.55249411E+00 -1.91049882E+01  0.00000000E+00  9.55249411E+00  9.55249411E+00
 -1.91049882E+01  0.00000000E+00  9.55249411E+00  9.55249411E+00 -1.91049882E+01
  0.00000000E+00  9.55249411E+00  9.55249411E+00 -1.91049882E+01  0.00000000E+00
  9.55249411E+00  9.55249411E+00 -1.91049882E+01  0.00000000E+00  9.55249411E+00
  9.55249411E+00 -1.91049882E+01  0.00000000E+00  9.55249411E+00  9.55249411E+00
 -1.91049882E+01  0.00000000E+00  9.55249411E+00  9.55249411E+00 -1.91049882E+01
  0.00000000E+00  9.55249411E+00  9.55249411E+00 -1.91049882E+01  0.00000000E+00
  9.55249411E+00  9.55249411E+00 -1.91049882E+01  0.00000000E+00  9.55249411E+00
  9.55249411E+00 -1.91049882E+01  0.00000000E+00  9.55249411E+00  9.55249411E+00
 -1.91049882E+01  0.00000000E+00  9.55249411E+00  9.55249411E+00 -1.91049882E+01
  0.00000000E+00  9.55249411E+00  9.55249411E+00 -1.91049882E+01  0.00000000E+00
  9.55249411E+00  9.55249411E+00 -1.91049882E+01  0.00000000E+00  9.55249411E+00
  9.55249411E+00 -1.91049882E+01  0.00000000E+00  9.55249411E+00  9.55249411E+00
 -1.91049882E+01  0.00000000E+00  9.55249411E+00  9.55249411E+00 -1.91049882E+01
  0.00000000E+00  9.55249411E+00  9.55249411E+00 -1.91049882E+01  0.00000000E+00
  9.55249411E+00  9.55249411E+00 -1.91049882E+01  0.00000000E+00  9.55249411E+00
  9.55249411E+00 -1.91049882E+01  0.00000000E+00  9.55249411E+00  9.55249411E+00
 -1.91049882E+01  0.00000000E+00  9.55249411E+00  9.55249411E+00 -1.91049882E+01
  0.00000000E+00  9.55249411E+00  9.55249411E+00 -1.91049882E+01  0.00000000E+00
  9.55249411E+00  9.55249411E+00 -1.91049882E+01  0.00000000E+00  9.55249411E+00
  9.55249411E+00 -1.91049882E+01  0.00000000E+00  9.55249411E+00  9.55249411E+00
 -1.91049882E+01  0.00000000E+00  9.55249411E+00  9.55249411E+00 -1.91049882E+01
  0.00000000E+00  9.55249411E+00  9.55249411E+00 -1.91049882E+01  0.00000000E+00
  9.55249411E+00  9.55249411E+00 -1.91049882E+01  0.00000000E+00  9.55249411E+00
  9.55249411E+00 -1.91049882E+01  0.00000000E+00  9.55249411E+00  9.55249411E+00
 -1.91049882E+01  0.00000000E+00  9.55249411E+00  9.55249411E+00 -1.91049882E+01
  0.00000000E+00  9.55249411E+00  9.55249411E+00 -1.91049882E+01  0.00000000E+00
  9.55249411E+00  9.55249411E+00 -1.91049882E+01  0.00000000E+00  9.55249411E+00
  9.55249411E+00 -1.91049882E+01  0.00000000E+00  9.55249411E+00  9.55249411E+00
 -1.91049882E+01  0.00000000E+00  9.55249411E+00  9.55249411E+00 -1.91049882E+01
  0.00000000E+00  9.55249411E+00  9.55249411E+00 -1.91049882E+01  0.00000000E+00
  9.55249411E+00  9.55249411E+00 -1.91049882E+01  0.00000000E+00  9.55249411E+00
  9.55249411E+00 -1.91049882E+01  0.00000000E+00  9.55249411E+00  9.55249411E+00
 -1.91049882E+01  0.00000000E+00  9.55249411E+00  9.55249411E+00 -1.91049882E+01
  0.00000000E+00  9.55249411E+00  9.55249411E+00 -1.91049882E+01  0.00000000E+00
  9.55249411E+00  9.55249411E+00 -1.91049882E+01  0.00000000E+00  9.55249411E+00
  9.55249411E+00 -1.91049882E+01  0.00000000E+00  9.55249411E+00  9.55249411E+00
 -1.91049882E+01  0.00000000E+00  9.55249411E+00  9.55249411E+00 -1.91049882E+01
  0.00000000E+00  9.55249411E+00  9.55249411E+00 -1.91049882E+01  0.00000000E+00
  9.55249411E+00  9.55249411E+00 -1.91049882E+01  0.00000000E+00  9.55249411E+00
  9.55249411E+00 -1.91049882E+01  0.00000000E+00  9.55249411E+00  9.55249411E+00
 -1.91049882E+01  0.00000000E+00  9.55249411E+00  9.55249411E+00 -1.91049882E+01
  0.00000000E+00  9.55249411E+00  9.55249411E+00 -1.91049882E+01  0.00000000E+00
  9.55249411E+00  9.55249411E+00 -1.91049882E+01  0.00000000E+00  9.55249411E+00
  9.55249411E+00 -1.91049882E+01  0.00000000E+00  9.55249411E+00  9.55249411E+00
 -1.91049882E+01  0.00000000E+00  9.55249411E+00  9.55249411E+00 -1.91049882E+01
  0.00000000E+00  9.55249411E+00  9.55249411E+00 -1.91049882E+01  0.00000000E+00
  9.55249411E+00  9.55249411E+00 -1.91049882E+01  0.00000000E+00  9.55249411E+00
  9.55249411E+00 -1.91049882E+01  0.00000000E+00  9.55249411E+00  9.55249411E+00
 -1.91049882E+01  0.00000000E+00  9.55249411E+00  9.55249411E+00 -1.91049882E+01
  0.00000000E+00  9.55249411E+00  9.55249411E+00 -1.91049882E+01  0.00000000E+00
  9.55249411E+00  9.55249411E+00 -1.91049882E+01  0.00000000E+00  9.55249411E+00
  9.55249411E+00 -1.91049882E+01  0.00000000E+00  9.55249411E+00  9.55249411E+00
 -1.91049882E+01  0.00000000E+00  9.55249411E+00  9.55249411E+00 -1.91049882E+01
  0.00000000E+00  9.55249411E+00  9.55249411E+00 -1.91049882E+01  0.00000000E+00
  9.55249411E+00  9.55249411E+00 -1.91049882E+01  0.00000000E+00  9.55249411E+00
  9.55249411E+00 -1.91049882E+01  0.00000000E+00  9.55249411E+00  9.55249411E+00
 -1.91049882E+01  0.00000000E+00  9.55249411E+00  9.55249411E+00 -1.91049882E+01
  0.00000000E+00  9.55249411E+00  9.55249411E+00 -1.91049882E+01  0.00000000E+00
  9.55249411E+00  9.55249411E+00 -1.91049882E+01  0.00000000E+00  9.55249411E+00
  9.55249411E+00 -1.91049882E+01  0.00000000E+00  9.55249411E+00  9.55249411E+00
 -1.91049882E+01  0.00000000E+00  9.55249411E+00  9.55249411E+00 -1.91049882E+01
  0.00000000E+00  9.55249411E+00  9.55249411E+00 -1.91049882E+01  0.00000000E+00
  9.55249411E+00  9.55249411E+00 -1.91049882E+01  0.00000000E+00  9.55249411E+00
  9.55249411E+00 -1.91049882E+01  0.00000000E+00  9.55249411E+00  9.55249411E+00
 -1.91049882E+01  0.00000000E+00  9.55249411E+00  9.55249411E+00 -1.91049882E+01
  0.00000000E+00  9.55249411E+00  9.55249411E+00 -1.91049882E+01  0.00000000E+00
  9.55249411E+00  9.55249411E+00 -1.91049882E+01  0.00000000E+00  9.55249411E+00
  9.55249411E+00 -1.91049882E+01  0.00000000E+00  9.55249411E+00  9.55249411E+00
 -1.91049882E+01  0.00000000E+00  9.55249411E+00  9.55249411E+00 -1.91049882E+01
  0.00000000E+00  9.55249411E+00  9.55249411E+00 -1.91049882E+01  0.00000000E+00
  9.55249411E+00  9.55249411E+00 -1.91049882E+01  0.00000000E+00  9.55249411E+00
  9.55249411E+00 -1.91049882E+01  0.00000000E+00  9.55249411E+00  9.55249411E+00
 -1.91049882E+01  0.00000000E+00  9.55249411E+00  9.55249411E+00 -1.91049882E+01
  0.00000000E+00  9.55249411E+00  9.55249411E+00 -1.91049882E+01  0.00000000E+00
  9.55249411E+00  9.55249411E+00 -1.91049882E+01  0.00000000E+00  9.55249411E+00
  9.55249411E+00 -1.91049882E+01  0.00000000E+00  9.55249411E+00  9.55249411E+00
 -1.91049882E+01  0.00000000E+00  9.55249411E+00  9.55249411E+00 -1.91049882E+01
  0.00000000E+00  9.55249411E+00  9.55249411E+00 -1.91049882E+01  0.00000000E+00
  9.55249411E+00  9.55249411E+00 -1.91049882E+01  0.00000000E+00  9.55249411E+00
  9.55249411E+00 -1.91049882E+01  0.00000000E+00  9.55249411E+00  9.55249411E+00
 -1.91049882E+01  0.00000000E+00  9.55249411E+00  9.55249411E+00 -1.91049882E+01
  0.00000000E+00  9.55249411E+00  9.55249411E+00 -1.91049882E+01  0.00000000E+00
  9.55249411E+00  9.55249411E+00 -1.91049882E+01  0.00000000E+00  9.55249411E+00
  9.55249411E+00 -1.91049882E+01  0.00000000E+00  9.55249411E+00  9.55249411E+00
 -1.91049882E+01  0.00000000E+00  9.55249411E+00  9.55249411E+00 -1.91049882E+01
  0.00000000E+00  9.55249411E+00  9.55249411E+00 -1.91049882E+01  0.00000000E+00
  9.55249411E+00  9.55249411E+00 -1.91049882E+01  0.00000000E+00  9.55249411E+00
  9.55249411E+00 -1.91049882E+01  0.00000000E+00  9.55249411E+00  9.55249411E+00
 -1.91049882E+01  0.00000000E+00  9.55249411E+00  9.55249411E+00 -1.91049882E+01
  0.00000000E+00  9.55249411E+00  9.55249411E+00 -1.91049882E+01  0.00000000E+00
  9.55249411E+00  9.55249411E+00 -1.91049882E+01  0.00000000E+00  9.55249411E+00
  9.55249411E+00 -1.91049882E+01  0.00000000E+00  9.55249411E+00  9.55249411E+00
 -1.91049882E+01  0.00000000E+00  9.55249411E+00  9.55249411E+00 -1.91049882E+01
  0.00000000E+00  9.55249411E+00  9.55249411E+00 -1.91049882E+01  0.00000000E+00
  9.55249411E+00  9.55249411E+00 -1.91049882E+01  0.00000000E+00  9.55249411E+00
  9.55249411E+00 -1.91049882E+01  0.00000000E+00  9.55249411E+00  9.55249411E+00
 -1.91049882E+01  0.00000000E+00  9.55249411E+00  9.55249411E+00 -1.91049882E+01
  0.00000000E+00  9.55249411E+00  9.55249411E+00 -1.91049882E+01  0.00000000E+00
  9.55249411E+00  9.55249411E+00 -1.91049882E+01  0.00000000E+00  9.55249411E+00
  9.55249411E+00 -1.91049882E+01  0.00000000E+00  9.55249411E+00  9.55249411E+00
 -1.91049882E+01  0.00000000E+00  9.55249411E+00  9.55249411E+00 -1.91049882E+01
  0.00000000E+00  9.55249411E+00  9.55249411E+00 -1.91049882E+01  0.00000000E+00
  9.55249411E+00  9.55249411E+00 -1.91049882E+01  0.00000000E+00  9.55249411E+00
  9.55249411E+00 -1.91049882E+01  0.00000000E+00  9.55249411E+00  9.55249411E+00
 -1.91049882E+01  0.00000000E+00  9.55249411E+00  9.55249411E+00 -1.91049882E+01
  0.00000000E+00  9.55249411E+00  9.55249411E+00 -1.91049882E+01  0.00000000E+00
  9.55249411E+00  9.55249411E+00 -1.91049882E+01  0.00000000E+00  9.55249411E+00
  9.55249411E+00 -1.91049882E+01  0.00000000E+00  9.55249411E+00  9.55249411E+00
 -1.91049882E+01  0.00000000E+00  9.55249411E+00  9.55249411E+00 -1.91049882E+01
  0.00000000E+00  9.55249411E+00  9.55249411E+00 -1.91049882E+01  0.00000000E+00
  9.55249411E+00  9.55249411E+00 -1.91049882E+01  0.00000000E+00  9.55249411E+00
  9.55249411E+00 -1.91049882E+01  0.00000000E+00  9.55249411E+00  9.55249411E+00
 -1.91049882E+01  0.00000000E+00  9.55249411E+00  9.55249411E+00 -1.91049882E+01
  0.00000000E+00  9.55249411E+00  9.55249411E+00 -1.91049882E+01  0.00000000E+00
  9.55249411E+00  9.55249411E+00 -1.91049882E+01  0.00000000E+00  9.55249411E+00
  9.55249411E+00 -1.91049882E+01  0.00000000E+00  9.55249411E+00  9.55249411E+00
 -1.91049882E+01  0.00000000E+00  9.55249411E+00  9.55249411E+00 -1.91049882E+01
  0.00000000E+00  9.55249411E+00  9.55249411E+00 -1.91049882E+01  0.00000000E+00
  9.55249411E+00  9.55249411E+00 -1.91049882E+01  0.00000000E+00  9.55249411E+00
  9.55249411E+00 -1.91049882E+01  0.00000000E+00  9.55249411E+00  9.55249411E+00
 -1.91049882E+01  0.00000000E+00  9.55249411E+00  9.55249411E+00 -1.91049882E+01
  0.00000000E+00  9.55249411E+00  9.55249411E+00 -1.91049882E+01  0.00000000E+00
  9.55249411E+00  9.55249411E+00 -1.91049882E+01  0.00000000E+00  9.55249411E+00
  9.55249411E+00 -1.91049882E+01  0.00000000E+00  9.55249411E+00  9.55249411E+00
 -1.91049882E+01  0.00000000E+00  9.55249411E+00  9.55249411E+00 -1.91049882E+01
  0.00000000E+00  9.55249411E+00  9.55249411E+00 -1.91049882E+01  0.00000000E+00
  9.55249411E+00  9.55249411E+00 -1.91049882E+01  0.00000000E+00  9.55249411E+00
  9.55249411E+00 -1.91049882E+01  0.00000000E+00  9.55249411E+00  9.55249411E+00
 -1.91049882E+01  0.00000000E+00  9.55249411E+00  9.55249411E+00 -1.91049882E+01
  0.00000000E+00  9.55249411E+00  9.55249411E+00 -1.91049882E+01  0.00000000E+00
  9.55249411E+00  9.55249411E+00 -1.91049882E+01  0.00000000E+00  9.55249411E+00
  9.55249411E+00 -1.91049882E+01  0.00000000E+00  9.55249411E+00  9.55249411E+00
 -1.91049882E+01  0.00000000E+00  9.55249411E+00  9.55249411E+00 -1.91049882E+01
  0.00000000E+00  9.55249411E+00  9.55249411E+00 -1.91049882E+01  0.00000000E+00
  9.55249411E+00  9.55249411E+00 -1.91049882E+01  0.00000000E+00  9.55249411E+00
  9.55249411E+00 -1.91049882E+01  0.00000000E+00  9.55249411E+00  9.55249411E+00
 -1.91049882E+01  0.00000000E+00  9.55249411E+00  9.55249411E+00 -1.91049882E+01
  0.00000000E+00  9.55249411E+00  9.55249411E+00 -1.91049882E+01  0.00000000E+00
  9.55249411E+00  9.55249411E+00 -1.91049882E+01  0.00000000E+00  9.55249411E+00
  9.55249411E+00 -1.91049882E+01  0.00000000E+00  9.55249411E+00  9.55249411E+00
 -1.91049882E+01  0.00000000E+00  9.55249411E+00  9.55249411E+00 -1.91049882E+01
  0.00000000E+00  9.55249411E+00  9.55249411E+00 -1.91049882E+01  0.00000000E+00
  9.55249411E+00  9.55249411E+00 -1.91049882E+01  0.00000000E+00  9.55249411E+00
  9.55249411E+00 -1.91049882E+01  0.00000000E+00  9.55249411E+00  9.55249411E+00
 -1.91049882E+01  0.00000000E+00  9.55249411E+00  9.55249411E+00 -1.91049882E+01
  0.00000000E+00  9.55249411E+00  9.55249411E+00 -1.91049882E+01  0.00000000E+00
  9.55249411E+00  9.55249411E+00 -1.91049882E+01  0.00000000E+00  9.55249411E+00
  9.55249411E+00 -1.91049882E+01  0.00000000E+00  9.55249411E+00  9.55249411E+00
 -1.91049882E+01  0.00000000E+00  9.55249411E+00  9.55249411E+00 -1.91049882E+01
  0.00000000E+00  9.55249411E+00  9.55249411E+00 -1.91049882E+01  0.00000000E+00
  9.55249411E+00  9.55249411E+00 -1.91049882E+01  0.00000000E+00  9.55249411E+00
  9.55249411E+00 -1.91049882E+01  0.00000000E+00  9.55249411E+00  9.55249411E+00
 -1.91049882E+01  0.00000000E+00  9.55249411E+00  9.55249411E+00 -1.91049882E+01
  0.00000000E+00  9.55249411E+00  9.55249411E+00 -1.91049882E+01  0.00000000E+00
  9.55249411E+00  9.55249411E+00 -1.91049882E+01  0.00000000E+00  9.55249411E+00
  9.55249411E+00 -1.91049882E+01  0.00000000E+00  9.55249411E+00  9.55249411E+00
 -1.91049882E+01  0.00000000E+00  9.55249411E+00  9.55249411E+00 -1.91049882E+01
  0.00000000E+00  9.55249411E+00  9.55249411E+00 -1.91049882E+01  0.00000000E+00
  9.55249411E+00  9.55249411E+00 -1.91049882E+01  0.00000000E+00  9.55249411E+00
  9.55249411E+00 -1.91049882E+01  0.00000000E+00  9.55249411E+00  9.55249411E+00
 -1.91049882E+01  0.00000000E+00  9.55249411E+00  9.55249411E+00 -1.91049882E+01
  0.00000000E+00  9.55249411E+00  9.55249411E+00 -1.91049882E+01  0.00000000E+00
  9.55249411E+00  9.55249411E+00 -1.91049882E+01  0.00000000E+00  9.55249411E+00
  9.55249411E+00 -1.91049882E+01  0.00000000E+00  9.55249411E+00  9.55249411E+00
 -1.91049882E+01  0.00000000E+00  9.55249411E+00  9.55249411E+00 -1.91049882E+01
  0.00000000E+00  9.55249411E+00  9.55249411E+00 -1.91049882E+01  0.00000000E+00
  9.55249411E+00  9.55249411E+00 -1.91049882E+01  0.00000000E+00  9.55249411E+00
  9.55249411E+00 -1.91049882E+01  0.00000000E+00  9.55249411E+00  9.55249411E+00
 -1.91049882E+01  0.00000000E+00  9.55249411E+00  9.55249411E+00 -1.91049882E+01
  0.00000000E+00  9.55249411E+00  9.55249411E+00 -1.91049882E+01  0.00000000E+00
  9.55249411E+00  9.55249411E+00 -1.91049882E+01  0.00000000E+00  9.55249411E+00
  9.55249411E+00 -1.91049882E+01  0.00000000E+00  9.55249411E+00  9.55249411E+00
 -1.91049882E+01  0.00000000E+00  9.55249411E+00  9.55249411E+00 -1.91049882E+01
  0.00000000E+00  9.55249411E+00  9.55249411E+00 -1.91049882E+01  0.00000000E+00
  9.55249411E+00  9.55249411E+00 -1.91049882E+01  0.00000000E+00  9.55249411E+00
  9.55249411E+00 -1.91049882E+01  0.00000000E+00  9.55249411E+00  9.55249411E+00
 -1.91049882E+01  0.00000000E+00  9.55249411E+00  9.55249411E+00 -1.91049882E+01
  0.00000000E+00  9.55249411E+00  9.55249411E+00 -1.91049882E+01  0.00000000E+00
  9.55249411E+00  9.55249411E+00 -1.91049882E+01  0.00000000E+00  9.55249411E+00
  9.55249411E+00 -1.91049882E+01  0.00000000E+00  9.55249411E+00  9.55249411E+00
 -1.91049882E+01  0.00000000E+00  9.55249411E+00  9.55249411E+00 -1.91049882E+01
  0.00000000E+00  9.55249411E+00  9.55249411E+00 -1.91049882E+01  0.00000000E+00
  9.55249411E+00  9.55249411E+00 -1.91049882E+01  0.00000000E+00  9.55249411E+00
  9.55249411E+00 -1.91049882E+01  0.00000000E+00  9.55249411E+00  9.55249411E+00
 -1.91049882E+01  0.00000000E+00  9.55249411E+00  9.55249411E+00 -1.91049882E+01
  0.00000000E+00  9.55249411E+00  9.55249411E+00 -1.91049882E+01  0.00000000E+00
  9.55249411E+00  9.55249411E+00 -1.91049882E+01  0.00000000E+00  9.55249411E+00
  9.55249411E+00 -1.91049882E+01  0.00000000E+00  9.55249411E+00  9.55249411E+00
 -1.91049882E+01  0.00000000E+00  9.55249411E+00  9.55249411E+00 -1.91049882E+01
  0.00000000E+00  9.55249411E+00  9.55249411E+00 -1.91049882E+01  0.00000000E+00
  9.55249411E+00  9.55249411E+00 -1.91049882E+01  0.00000000E+00  9.55249411E+00
  9.55249411E+00 -1.91049882E+01  0.00000000E+00  9.55249411E+00  9.55249411E+00
 -1.91049882E+01  0.00000000E+00  9.55249411E+00  9.55249411E+00 -1.91049882E+01
  0.00000000E+00  9.55249411E+00  9.55249411E+00 -1.91049882E+01  0.00000000E+00
  9.55249411E+00  9.55249411E+00 -1.91049882E+01  0.00000000E+00  9.55249411E+00
  9.55249411E+00 -1.91049882E+01  0.00000000E+00  9.55249411E+00  9.55249411E+00
 -1.91049882E+01  0.00000000E+00  9.55249411E+00  9.55249411E+00 -1.91049882E+01
  0.00000000E+00  9.55249411E+00  9.55249411E+00 -1.91049882E+01  0.00000000E+00
  9.55249411E+00  9.55249411E+00 -1.91049882E+01  0.00000000E+00  9.55249411E+00
  9.55249411E+00 -1.91049882E+01  0.00000000E+00  9.55249411E+00  9.55249411E+00
 -1.91049882E+01  0.00000000E+00  9.55249411E+00  9.55249411E+00 -1.91049882E+01
  0.00000000E+00  9.55249411E+00  9.55249411E+00 -1.91049882E+01  0.00000000E+00
  9.55249411E+00  9.55249411E+00 -1.91049882E+01  0.00000000E+00  9.55249411E+00
  9.55249411E+00 -1.91049882E+01  0.00000000E+00  9.55249411E+00  9.55249411E+00
 -1.91049882E+01  0.00000000E+00  9.55249411E+00  9.55249411E+00 -1.91049882E+01
  0.00000000E+00  9.55249411E+00  9.55249411E+00 -1.91049882E+01  0.00000000E+00
  9.55249411E+00  9.55249411E+00 -1.91049882E+01  0.00000000E+00  9.55249411E+00
  9.55249411E+00 -1.91049882E+01  0.00000000E+00  9.55249411E+00  9.55249411E+00
 -1.91049882E+01  0.00000000E+00  9.55249411E+00  9.55249411E+00 -1.91049882E+01
  0.00000000E+00  9.55249411E+00  9.55249411E+00 -1.91049882E+01  0.00000000E+00
  9.55249411E+00  9.55249411E+00 -1.91049882E+01  0.00000000E+00  9.55249411E+00
  9.55249411E+00 -1.91049882E+01  0.00000000E+00  9.55249411E+00  9.55249411E+00
 -1.91049882E+01  0.00000000E+00  9.55249411E+00  9.55249411E+00 -1.91049882E+01
  0.00000000E+00  9.55249411E+00  9.55249411E+00 -1.91049882E+01  0.00000000E+00
  9.55249411E+00  9.55249411E+00 -1.91049882E+01  0.00000000E+00  9.55249411E+00
  9.55249411E+00 -1.91049882E+01  0.00000000E+00  9.55249411E+00  9.55249411E+00
 -1.91049882E+01  0.00000000E+00  9.55249411E+00  9.55249411E+00 -1.91049882E+01
  0.00000000E+00  9.55249411E+00  9.55249411E+00 -1.91049882E+01  0.00000000E+00
  9.55249411E+00  9.55249411E+00 -1.91049882E+01  0.00000000E+00  9.55249411E+00
  9.55249411E+00 -1.91049882E+01  0.00000000E+00  9.55249411E+00  9.55249411E+00
 -1.91049882E+01  0.00000000E+00  9.55249411E+00  9.55249411E+00 -1.91049882E+01
  0.00000000E+00  9.55249411E+00  9.55249411E+00 -1.91049882E+01  0.00000000E+00
  9.55249411E+00  9.55249411E+00 -1.91049882E+01  0.00000000E+00  9.55249411E+00
  9.55249411E+00 -1.91049882E+01  0.00000000E+00  9.55249411E+00  9.55249411E+00
 -1.91049882E+01  0.00000000E+00  9.55249411E+00  9.55249411E+00 -1.91049882E+01
  0.00000000E+00  9.55249411E+00  9.55249411E+00 -1.91049882E+01  0.00000000E+00
  9.55249411E+00  9.55249411E+00 -1.91049882E+01  0.00000000E+00  9.55249411E+00
  9.55249411E+00 -1.91049882E+01  0.00000000E+00  9.55249411E+00  9.55249411E+00
 -1.91049882E+01  0.00000000E+00  9.55249411E+00  9.55249411E+00 -1.91049882E+01
  0.00000000E+00  9.55249411E+00  9.55249411E+00 -1.91049882E+01  0.00000000E+00
  9.55249411E+00  9.55249411E+00 -1.91049882E+01  0.00000000E+00  9.55249411E+00
  9.55249411E+00 -1.91049882E+01  0.00000000E+00  9.55249411E+00  9.55249411E+00
 -1.91049882E+01  0.00000000E+00  9.55249411E+00  9.55249411E+00 -1.91049882E+01
  0.00000000E+00  9.55249411E+00  9.55249411E+00 -1.91049882E+01  0.00000000E+00
  9.55249411E+00  9.55249411E+00 -1.91049882E+01  0.00000000E+00  9.55249411E+00
  9.55249411E+00 -1.91049882E+01  0.00000000E+00  9.55249411E+00  9.55249411E+00
 -1.91049882E+01  0.00000000E+00  9.55249411E+00  9.55249411E+00 -1.91049882E+01
  0.00000000E+00  9.55249411E+00  9.55249411E+00 -1.91049882E+01  0.00000000E+00
  9.55249411E+00  9.55249411E+00 -1.91049882E+01  0.00000000E+00  9.55249411E+00
  9.55249411E+00 -1.91049882E+01  0.00000000E+00  9.55249411E+00  9.55249411E+00
 -1.91049882E+01  0.00000000E+00  9.55249411E+00  9.55249411E+00 -1.91049882E+01
  0.00000000E+00  9.55249411E+00  9.55249411E+00 -1.91049882E+01  0.00000000E+00
  9.55249411E+00  9.55249411E+00 -1.91049882E+01  0.00000000E+00  9.55249411E+00
  9.55249411E+00 -1.91049882E+01  0.00000000E+00  9.55249411E+00  9.55249411E+00
 -1.91049882E+01  0.00000000E+00  9.55249411E+00  9.55249411E+00 -1.91049882E+01
  0.00000000E+00  9.55249411E+00  9.55249411E+00 -1.91049882E+01  0.00000000E+00
  9.55249411E+00  9.55249411E+00 -1.91049882E+01  0.00000000E+00  9.55249411E+00
  9.55249411E+00 -1.91049882E+01  0.00000000E+00  9.55249411E+00  9.55249411E+00
 -1.91049882E+01  0.00000000E+00  9.55249411E+00  9.55249411E+00 -1.91049882E+01
  0.00000000E+00  9.55249411E+00  9.55249411E+00 -1.91049882E+01  0.00000000E+00
  9.55249411E+00  9.55249411E+00 -1.91049882E+01  0.00000000E+00  9.55249411E+00
  9.55249411E+00 -1.91049882E+01  0.00000000E+00  9.55249411E+00  9.55249411E+00
 -1.91049882E+01  0.00000000E+00  9.55249411E+00  9.55249411E+00 -1.91049882E+01
  0.00000000E+00  9.55249411E+00  9.55249411E+00 -1.91049882E+01  0.00000000E+00
  9.55249411E+00  9.55249411E+00 -1.91049882E+01  0.00000000E+00  9.55249411E+00
  9.55249411E+00 -1.91049882E+01  0.00000000E+00  9.55249411E+00  9.55249411E+00
 -1.91049882E+01  0.00000000E+00  9.55249411E+00  9.55249411E+00 -1.91049882E+01
  0.00000000E+00  9.55249411E+00  9.55249411E+00 -1.91049882E+01  0.00000000E+00
  9.55249411E+00  9.55249411E+00 -1.91049882E+01  0.00000000E+00  9.55249411E+00
  9.55249411E+00 -1.91049882E+01  0.00000000E+00  9.55249411E+00  9.55249411E+00
 -1.91049882E+01  0.00000000E+00  9.55249411E+00  9.55249411E+00 -1.91049882E+01
  0.00000000E+00  9.55249411E+00  9.55249411E+00 -1.91049882E+01  0.00000000E+00
  9.55249411E+00  9.55249411E+00 -1.91049882E+01  0.00000000E+00  9.55249411E+00
  9.55249411E+00 -1.91049882E+01  0.00000000E+00  9.55249411E+00  9.55249411E+00
 -1.91049882E+01  0.00000000E+00  9.55249411E+00  9.55249411E+00 -1.91049882E+01
  0.00000000E+00  9.55249411E+00  9.55249411E+00 -1.91049882E+01  0.00000000E+00
  9.55249411E+00  9.55249411E+00 -1.91049882E+01  0.00000000E+00  9.55249411E+00
  9.55249411E+00 -1.91049882E+01  0.00000000E+00  9.55249411E+00  9.55249411E+00
 -1.91049882E+01  0.00000000E+00  9.55249411E+00  9.55249411E+00 -1.91049882E+01
  0.00000000E+00  9.55249411E+00  9.55249411E+00 -1.91049882E+01  0.00000000E+00
  9.55249411E+00  9.55249411E+00 -1.91049882E+01  0.00000000E+00  9.55249411E+00
  9.55249411E+00 -1.91049882E+01  0.00000000E+00  9.55249411E+00  9.55249411E+00
 -1.91049882E+01  0.00000000E+00  9.55249411E+00  9.55249411E+00 -1.91049882E+01
  0.00000000E+00  9.55249411E+00  9.55249411E+00 -1.91049882E+01  0.00000000E+00
  9.55249411E+00  9.55249411E+00 -1.91049882E+01  0.00000000E+00  9.55249411E+00
  9.55249411E+00 -1.91049882E+01  0.00000000E+00  9.55249411E+00  9.55249411E+00
 -1.91049882E+01  0.00000000E+00  9.55249411E+00  9.55249411E+00 -1.91049882E+01
  0.00000000E+00  9.55249411E+00  9.55249411E+00 -1.91049882E+01  0.00000000E+00
  9.55249411E+00  9.55249411E+00 -1.91049882E+01  0.00000000E+00  9.55249411E+00
  9.55249411E+00 -1.91049882E+01  0.00000000E+00  9.55249411E+00  9.55249411E+00
 -1.91049882E+01  0.00000000E+00  9.55249411E+00  9.55249411E+00 -1.91049882E+01
  0.00000000E+00  9.55249411E+00  9.55249411E+00 -1.91049882E+01  0.00000000E+00
  9.55249411E+00  9.55249411E+00 -1.91049882E+01  0.00000000E+00  9.55249411E+00
  9.55249411E+00 -1.91049882E+01  0.00000000E+00  9.55249411E+00  9.55249411E+00
 -1.91049882E+01  0.00000000E+00  9.55249411E+00  9.55249411E+00 -1.91049882E+01
  0.00000000E+00  9.55249411E+00  9.55249411E+00 -1.91049882E+01  0.00000000E+00
  9.55249411E+00  9.55249411E+00 -1.91049882E+01  0.00000000E+00  9.55249411E+00
  9.55249411E+00 -1.91049882E+01  0.00000000E+00  9.55249411E+00  9.55249411E+00
 -1.91049882E+01  0.00000000E+00  9.55249411E+00  9.55249411E+00 -1.91049882E+01
  0.00000000E+00  9.55249411E+00  9.55249411E+00 -1.91049882E+01  0.00000000E+00
  9.55249411E+00  9.55249411E+00 -1.91049882E+01  0.00000000E+00  9.55249411E+00
  9.55249411E+00 -1.91049882E+01  0.00000000E+00  9.55249411E+00  9.55249411E+00
 -1.91049882E+01  0.00000000E+00  9.55249411E+00  9.55249411E+00 -1.91049882E+01
  0.00000000E+00  9.55249411E+00  9.55249411E+00 -1.91049882E+01  0.00000000E+00
  9.55249411E+00  9.55249411E+00 -1.91049882E+01  0.00000000E+00  9.55249411E+00
  9.55249411E+00 -1.91049882E+01  0.00000000E+00  9.55249411E+00  9.55249411E+00
 -1.91049882E+01  0.00000000E+00  9.55249411E+00  9.55249411E+00 -1.91049882E+01
  0.00000000E+00  9.55249411E+00  9.55249411E+00 -1.91049882E+01  0.00000000E+00
  9.55249411E+00  9.55249411E+00 -1.91049882E+01  0.00000000E+00  9.55249411E+00
  9.55249411E+00 -1.91049882E+01  0.00000000E+00  9.55249411E+00  9.55249411E+00
 -1.91049882E+01  0.00000000E+00  9.55249411E+00  9.55249411E+00 -1.91049882E+01
  0.00000000E+00  9.55249411E+00  9.55249411E+00 -1.91049882E+01  0.00000000E+00
  9.55249411E+00  9.55249411E+00 -1.91049882E+01  0.00000000E+00  9.55249411E+00
  9.55249411E+00 -1.91049882E+01  0.00000000E+00  9.55249411E+00  9.55249411E+00
 -1.91049882E+01  0.00000000E+00  9.55249411E+00  9.55249411E+00 -1.91049882E+01
  0.00000000E+00  9.55249411E+00  9.55249411E+00 -1.91049882E+01  0.00000000E+00
  9.55249411E+00  9.55249411E+00 -1.91049882E+01  0.00000000E+00  9.55249411E+00
  9.55249411E+00 -1.91049882E+01  0.00000000E+00  9.55249411E+00  9.55249411E+00
 -1.91049882E+01  0.00000000E+00  9.55249411E+00  9.55249411E+00 -1.91049882E+01
  0.00000000E+00  9.55249411E+00  9.55249411E+00 -1.91049882E+01  0.00000000E+00
  9.55249411E+00  9.55249411E+00 -1.91049882E+01  0.00000000E+00  9.55249411E+00
  9.55249411E+00 -1.91049882E+01  0.00000000E+00  9.55249411E+00  9.55249411E+00
 -1.91049882E+01  0.00000000E+00  9.55249411E+00  9.55249411E+00 -1.91049882E+01
  0.00000000E+00  9.55249411E+00  9.55249411E+00 -1.91049882E+01  0.00000000E+00
  9.55249411E+00  9.55249411E+00 -1.91049882E+01  0.00000000E+00  9.55249411E+00
  9.55249411E+00 -1.91049882E+01  0.00000000E+00  9.55249411E+00  9.55249411E+00
 -1.91049882E+01  0.00000000E+00  9.55249411E+00  9.55249411E+00 -1.91049882E+01
  0.00000000E+00  9.55249411E+00  9.55249411E+00 -1.91049882E+01  0.00000000E+00
  9.55249411E+00  9.55249411E+00 -1.91049882E+01  0.00000000E+00  9.55249411E+00
  9.55249411E+00 -1.91049882E+01  0.00000000E+00  9.55249411E+00  9.55249411E+00
 -1.91049882E+01  0.00000000E+00  9.55249411E+00  9.55249411E+00 -1.91049882E+01
  0.00000000E+00  9.55249411E+00  9.55249411E+00 -1.91049882E+01  0.00000000E+00
  9.55249411E+00  9.55249411E+00 -1.91049882E+01  0.00000000E+00  9.55249411E+00
  9.55249411E+00 -1.91049882E+01  0.00000000E+00  9.55249411E+00  9.55249411E+00
 -1.91049882E+01  0.00000000E+00  9.55249411E+00  9.55249411E+00 -1.91049882E+01
  0.00000000E+00  9.55249411E+00  9.55249411E+00 -1.91049882E+01  0.00000000E+00
  9.55249411E+00  9.55249411E+00 -1.91049882E+01  0.00000000E+00  9.55249411E+00
  9.55249411E+00 -1.91049882E+01  0.00000000E+00  9.55249411E+00  9.55249411E+00
 -1.91049882E+01  0.00000000E+00  9.55249411E+00  9.55249411E+00 -1.91049882E+01
  0.00000000E+00  9.55249411E+00  9.55249411E+00 -1.91049882E+01  0.00000000E+00
  9.55249411E+00  9.55249411E+00 -1.91049882E+01  0.00000000E+00  9.55249411E+00
  9.55249411E+00 -1.91049882E+01  0.00000000E+00  9.55249411E+00  9.55249411E+00
 -1.91049882E+01  0.00000000E+00  9.55249411E+00  9.55249411E+00 -1.91049882E+01
  0.00000000E+00  9.55249411E+00  9.55249411E+00 -1.91049882E+01  0.00000000E+00
  9.55249411E+00  9.55249411E+00 -1.91049882E+01  0.00000000E+00  9.55249411E+00
  9.55249411E+00 -1.91049882E+01  0.00000000E+00  9.55249411E+00  9.55249411E+00
 -1.91049882E+01  0.00000000E+00  9.55249411E+00  9.55249411E+00 -1.91049882E+01
  0.00000000E+00  9.55249411E+00  9.55249411E+00 -1.91049882E+01  0.00000000E+00
  9.55249411E+00  9.55249411E+00 -1.91049882E+01  0.00000000E+00  9.55249411E+00
  9.55249411E+00 -1.91049882E+01  0.00000000E+00  9.55249411E+00  9.55249411E+00
 -1.91049882E+01  0.00000000E+00  9.55249411E+00  9.55249411E+00 -1.91049882E+01
  0.00000000E+00  9.55249411E+00  9.55249411E+00 -1.91049882E+01  0.00000000E+00
  9.55249411E+00  9.55249411E+00 -1.91049882E+01  0.00000000E+00  9.55249411E+00
  9.55249411E+00 -1.91049882E+01  0.00000000E+00  9.55249411E+00  9.55249411E+00
 -1.91049882E+01  0.00000000E+00  9.55249411E+00  9.55249411E+00 -1.91049882E+01
  0.00000000E+00  9.55249411E+00  9.55249411E+00 -1.91049882E+01  0.00000000E+00
  9.55249411E+00  9.55249411E+00 -1.91049882E+01  0.00000000E+00  9.55249411E+00
  9.55249411E+00 -1.91049882E+01  0.00000000E+00  9.55249411E+00  9.55249411E+00
 -1.91049882E+01  0.00000000E+00  9.55249411E+00  9.55249411E+00 -1.91049882E+01
  0.00000000E+00  9.55249411E+00  9.55249411E+00 -1.91049882E+01  0.00000000E+00
  9.55249411E+00  9.55249411E+00 -1.91049882E+01  0.00000000E+00  9.55249411E+00
  9.55249411E+00 -1.91049882E+01  0.00000000E+00  9.55249411E+00  9.55249411E+00
 -1.91049882E+01  0.00000000E+00  9.55249411E+00  9.55249411E+00 -1.91049882E+01
  0.00000000E+00  9.55249411E+00  9.55249411E+00 -1.91049882E+01  0.00000000E+00
  9.55249411E+00  9.55249411E+00 -1.91049882E+01  0.00000000E+00  9.55249411E+00
  9.55249411E+00 -1.91049882E+01  0.00000000E+00  9.55249411E+00  9.55249411E+00
 -1.91049882E+01  0.00000000E+00  9.55249411E+00  9.55249411E+00 -1.91049882E+01
  0.00000000E+00  9.55249411E+00  9.55249411E+00 -1.91049882E+01  0.00000000E+00
  9.55249411E+00  9.55249411E+00 -1.91049882E+01  0.00000000E+00  9.55249411E+00
  9.55249411E+00 -1.91049882E+01  0.00000000E+00  9.55249411E+00  9.55249411E+00
 -1.91049882E+01  0.00000000E+00  9.55249411E+00  9.55249411E+00 -1.91049882E+01
  0.00000000E+00  9.55249411E+00  9.55249411E+00 -1.91049882E+01  0.00000000E+00
  9.55249411E+00  9.55249411E+00 -1.91049882E+01  0.00000000E+00  9.55249411E+00
  9.55249411E+00 -1.91049882E+01  0.00000000E+00  9.55249411E+00  9.55249411E+00
 -1.91049882E+01  0.00000000E+00  9.55249411E+00  9.55249411E+00 -1.91049882E+01
  0.00000000E+00  9.55249411E+00  9.55249411E+00 -1.91049882E+01  0.00000000E+00
  9.55249411E+00  9.55249411E+00 -1.91049882E+01  0.00000000E+00  9.55249411E+00
  9.55249411E+00 -1.91049882E+01  0.00000000E+00  9.55249411E+00  9.55249411E+00
 -1.91049882E+01  0.00000000E+00  9.55249411E+00  9.55249411E+00 -1.91049882E+01
  0.00000000E+00  9.55249411E+00  9.55249411E+00 -1.91049882E+01  0.00000000E+00
  9.55249411E+00  9.55249411E+00 -1.91049882E+01  0.00000000E+00  9.55249411E+00
  9.55249411E+00 -1.91049882E+01  0.00000000E+00  9.55249411E+00  9.55249411E+00
 -1.91049882E+01  0.00000000E+00  9.55249411E+00  9.55249411E+00 -1.91049882E+01
  0.00000000E+00  9.55249411E+00  9.55249411E+00 -1.91049882E+01  0.00000000E+00
  9.55249411E+00  9.55249411E+00 -1.91049882E+01  0.00000000E+00  9.55249411E+00
  9.55249411E+00 -1.91049882E+01  0.00000000E+00  9.55249411E+00  9.55249411E+00
 -1.91049882E+01  0.00000000E+00  9.55249411E+00  9.55249411E+00 -1.91049882E+01
  0.00000000E+00  9.55249411E+00  9.55249411E+00 -1.91049882E+01  0.00000000E+00
  9.55249411E+00  9.55249411E+00 -1.91049882E+01  0.00000000E+00  9.55249411E+00
  9.55249411E+00 -1.91049882E+01  0.00000000E+00  9.55249411E+00  9.55249411E+00
 -1.91049882E+01  0.00000000E+00  9.55249411E+00  9.55249411E+00 -1.91049882E+01
  0.00000000E+00  9.55249411E+00  9.55249411E+00 -1.91049882E+01  0.00000000E+00
  9.55249411E+00  9.55249411E+00 -1.91049882E+01  0.00000000E+00  9.55249411E+00
  9.55249411E+00 -1.91049882E+01  0.00000000E+00  9.55249411E+00  9.55249411E+00
 -1.91049882E+01  0.00000000E+00  9.55249411E+00  9.55249411E+00 -1.91049882E+01
  0.00000000E+00  9.55249411E+00  9.55249411E+00 -1.91049882E+01  0.00000000E+00
  9.55249411E+00  9.55249411E+00 -1.91049882E+01  0.00000000E+00  9.55249411E+00
  9.55249411E+00 -1.91049882E+01  0.00000000E+00  9.55249411E+00  9.55249411E+00
 -1.91049882E+01  0.00000000E+00  9.55249411E+00  9.55249411E+00 -1.91049882E+01
  0.00000000E+00  9.55249411E+00  9.55249411E+00 -1.91049882E+01  0.00000000E+00
  9.55249411E+00  9.55249411E+00 -1.91049882E+01  0.00000000E+00  9.55249411E+00
  9.55249411E+00 -1.91049882E+01  0.00000000E+00  9.55249411E+00  9.55249411E+00
 -1.91049882E+01  0.00000000E+00  9.55249411E+00  9.55249411E+00 -1.91049882E+01
  0.00000000E+00  9.55249411E+00  9.55249411E+00 -1.91049882E+01  0.00000000E+00
  9.55249411E+00  9.55249411E+00 -1.91049882E+01  0.00000000E+00  9.55249411E+00
  9.55249411E+00 -1.91049882E+01  0.00000000E+00  9.55249411E+00  9.55249411E+00
 -1.91049882E+01  0.00000000E+00  9.55249411E+00  9.55249411E+00 -1.91049882E+01
  0.00000000E+00  9.55249411E+00  9.55249411E+00 -1.91049882E+01  0.00000000E+00
  9.55249411E+00  9.55249411E+00 -1.91049882E+01  0.00000000E+00  9.55249411E+00
  9.55249411E+00 -1.91049882E+01  0.00000000E+00  9.55249411E+00  9.55249411E+00
 -1.91049882E+01  0.00000000E+00  9.55249411E+00  9.55249411E+00 -1.91049882E+01
  0.00000000E+00  9.55249411E+00  9.55249411E+00 -1.91049882E+01  0.00000000E+00
  9.55249411E+00  9.55249411E+00 -1.91049882E+01  0.00000000E+00  9.55249411E+00
  9.55249411E+00 -1.91049882E+01  0.00000000E+00  9.55249411E+00  9.55249411E+00
 -1.91049882E+01  0.00000000E+00  9.55249411E+00  9.55249411E+00 -1.91049882E+01
  0.00000000E+00  9.55249411E+00  9.55249411E+00 -1.91049882E+01  0.00000000E+00
  9.55249411E+00  9.55249411E+00 -1.91049882E+01  0.00000000E+00  9.55249411E+00
  9.55249411E+00 -1.91049882E+01  0.00000000E+00  9.55249411E+00  9.55249411E+00
 -1.91049882E+01  0.00000000E+00  9.55249411E+00  9.55249411E+00 -1.91049882E+01
  0.00000000E+00  9.55249411E+00  9.55249411E+00 -1.91049882E+01  0.00000000E+00
  9.55249411E+00  9.55249411E+00 -1.91049882E+01  0.00000000E+00  9.55249411E+00
  9.55249411E+00 -1.91049882E+01  0.00000000E+00  9.55249411E+00  9.55249411E+00
 -1.91049882E+01  0.00000000E+00  9.55249411E+00  9.55249411E+00 -1.91049882E+01
  0.00000000E+00  9.55249411E+00  9.55249411E+00 -1.91049882E+01  0.00000000E+00
  9.55249411E+00  9.55249411E+00 -1.91049882E+01  0.00000000E+00  9.55249411E+00
  9.55249411E+00 -1.91049882E+01  0.00000000E+00  9.55249411E+00  9.55249411E+00
 -1.91049882E+01  0.00000000E+00  9.55249411E+00  9.55249411E+00 -1.91049882E+01
  0.00000000E+00  9.55249411E+00  9.55249411E+00 -1.91049882E+01  0.00000000E+00
  9.55249411E+00  9.55249411E+00 -1.91049882E+01  0.00000000E+00  9.55249411E+00
  9.55249411E+00 -1.91049882E+01  0.00000000E+00  9.55249411E+00  9.55249411E+00
 -1.91049882E+01  0.00000000E+00  9.55249411E+00  9.55249411E+00 -1.91049882E+01
  0.00000000E+00  9.55249411E+00  9.55249411E+00 -1.91049882E+01  0.00000000E+00
  9.55249411E+00  9.55249411E+00 -1.91049882E+01  0.00000000E+00  9.55249411E+00
  9.55249411E+00 -1.91049882E+01  0.00000000E+00  9.55249411E+00  9.55249411E+00
 -1.91049882E+01  0.00000000E+00  9.55249411E+00  9.55249411E+00 -1.91049882E+01
  0.00000000E+00  9.55249411E+00  9.55249411E+00 -1.91049882E+01  0.00000000E+00
  9.55249411E+00  9.55249411E+00 -1.91049882E+01  0.00000000E+00  9.55249411E+00
  9.55249411E+00 -1.91049882E+01  0.00000000E+00  9.55249411E+00  9.55249411E+00
 -1.91049882E+01  0.00000000E+00  9.55249411E+00  9.55249411E+00 -1.91049882E+01
  0.00000000E+00  9.55249411E+00  9.55249411E+00 -1.91049882E+01  0.00000000E+00
  9.55249411E+00  9.55249411E+00 -1.91049882E+01  0.00000000E+00  9.55249411E+00
  9.55249411E+00 -1.91049882E+01  0.00000000E+00  9.55249411E+00  9.55249411E+00
 -1.91049882E+01  0.00000000E+00  9.55249411E+00  9.55249411E+00 -1.91049882E+01
  0.00000000E+00  9.55249411E+00  9.55249411E+00 -1.91049882E+01  0.00000000E+00
  9.55249411E+00  9.55249411E+00 -1.91049882E+01  0.00000000E+00  9.55249411E+00
  9.55249411E+00 -1.91049882E+01  0.00000000E+00  9.55249411E+00  9.55249411E+00
 -1.91049882E+01  0.00000000E+00  9.55249411E+00  9.55249411E+00 -1.91049882E+01
  0.00000000E+00  9.55249411E+00  9.55249411E+00 -1.91049882E+01  0.00000000E+00
  9.55249411E+00  9.55249411E+00 -1.91049882E+01  0.00000000E+00  9.55249411E+00
  9.55249411E+00 -1.91049882E+01  0.00000000E+00  9.55249411E+00  9.55249411E+00
 -1.91049882E+01  0.00000000E+00  9.55249411E+00  9.55249411E+00 -1.91049882E+01
  0.00000000E+00  9.55249411E+00  9.55249411E+00 -1.91049882E+01  0.00000000E+00
  9.55249411E+00  9.55249411E+00 -1.91049882E+01  0.00000000E+00  9.55249411E+00
  9.55249411E+00 -1.91049882E+01  0.00000000E+00  9.55249411E+00  9.55249411E+00
 -1.91049882E+01  0.00000000E+00  9.55249411E+00  9.55249411E+00 -1.91049882E+01
  0.00000000E+00  9.55249411E+00  9.55249411E+00 -1.91049882E+01  0.00000000E+00
  9.55249411E+00  9.55249411E+00 -1.91049882E+01  0.00000000E+00  9.55249411E+00
  9.55249411E+00 -1.91049882E+01  0.00000000E+00  9.55249411E+00  9.55249411E+00
 -1.91049882E+01  0.00000000E+00  9.55249411E+00  9.55249411E+00 -1.91049882E+01
  0.00000000E+00  9.55249411E+00  9.55249411E+00 -1.91049882E+01  0.00000000E+00
  9.55249411E+00  9.55249411E+00 -1.91049882E+01  0.00000000E+00  9.55249411E+00
  9.55249411E+00 -1.91049882E+01  0.00000000E+00  9.55249411E+00  9.55249411E+00
 -1.91049882E+01  0.00000000E+00  9.55249411E+00  9.55249411E+00 -1.91049882E+01
  0.00000000E+00  9.55249411E+00  9.55249411E+00 -1.91049882E+01  0.00000000E+00
  9.55249411E+00  9.55249411E+00 -1.91049882E+01  0.00000000E+00  9.55249411E+00
  9.55249411E+00 -1.91049882E+01  0.00000000E+00  9.55249411E+00  9.55249411E+00
 -1.91049882E+01  0.00000000E+00  9.55249411E+00  9.55249411E+00 -1.91049882E+01
  0.00000000E+00  9.55249411E+00  9.55249411E+00 -1.91049882E+01  0.00000000E+00
  9.55249411E+00  9.55249411E+00 -1.91049882E+01  0.00000000E+00  9.55249411E+00
  9.55249411E+00 -1.91049882E+01  0.00000000E+00  9.55249411E+00  9.55249411E+00
 -1.91049882E+01  0.00000000E+00  9.55249411E+00  9.55249411E+00 -1.91049882E+01
  0.00000000E+00  9.55249411E+00  9.55249411E+00 -1.91049882E+01  0.00000000E+00
  9.55249411E+00  9.55249411E+00 -1.91049882E+01  0.00000000E+00  9.55249411E+00
  9.55249411E+00 -1.91049882E+01  0.00000000E+00  9.55249411E+00  9.55249411E+00
 -1.91049882E+01  0.00000000E+00  9.55249411E+00  9.55249411E+00 -1.91049882E+01
  0.00000000E+00  9.55249411E+00  9.55249411E+00 -1.91049882E+01  0.00000000E+00
  9.55249411E+00  9.55249411E+00 -1.91049882E+01  0.00000000E+00  9.55249411E+00
  9.55249411E+00 -1.91049882E+01  0.00000000E+00  9.55249411E+00  9.55249411E+00
 -1.91049882E+01  0.00000000E+00  9.55249411E+00  9.55249411E+00 -1.91049882E+01
  0.00000000E+00  9.55249411E+00  9.55249411E+00 -1.91049882E+01  0.00000000E+00
  9.55249411E+00  9.55249411E+00 -1.91049882E+01  0.00000000E+00  9.55249411E+00
  9.55249411E+00 -1.91049882E+01  0.00000000E+00  9.55249411E+00  9.55249411E+00
 -1.91049882E+01  0.00000000E+00  9.55249411E+00  9.55249411E+00 -1.91049882E+01
  0.00000000E+00  9.55249411E+00  9.55249411E+00 -1.91049882E+01  0.00000000E+00
  9.55249411E+00  9.55249411E+00 -1.91049882E+01  0.00000000E+00  9.55249411E+00
  9.55249411E+00 -1.91049882E+01  0.00000000E+00  9.55249411E+00  9.55249411E+00
 -1.91049882E+01  0.00000000E+00  9.55249411E+00  9.55249411E+00 -1.91049882E+01
  0.00000000E+00  9.55249411E+00  9.55249411E+00 -1.91049882E+01  0.00000000E+00
  9.55249411E+00  9.55249411E+00 -1.91049882E+01  0.00000000E+00  9.55249411E+00
  9.55249411E+00 -1.91049882E+01  0.00000000E+00  9.55249411E+00  9.55249411E+00
 -1.91049882E+01  0.00000000E+00  9.55249411E+00  9.55249411E+00 -1.91049882E+01
  0.00000000E+00  9.55249411E+00  9.55249411E+00 -1.91049882E+01  0.00000000E+00
  9.55249411E+00  9.55249411E+00 -1.91049882E+01  0.00000000E+00  9.55249411E+00
  9.55249411E+00 -1.91049882E+01  0.00000000E+00  9.55249411E+00  9.55249411E+00
 -1.91049882E+01  0.00000000E+00  9.55249411E+00  9.55249411E+00 -1.91049882E+01
  0.00000000E+00  9.55249411E+00  9.55249411E+00 -1.91049882E+01  0.00000000E+00
  9.55249411E+00  9.55249411E+00 -1.91049882E+01  0.00000000E+00  9.55249411E+00
  9.55249411E+00 -1.91049882E+01  0.00000000E+00  9.55249411E+00  9.55249411E+00
 -1.91049882E+01  0.00000000E+00  9.55249411E+00  9.55249411E+00 -1.91049882E+01
  0.00000000E+00  9.55249411E+00  9.55249411E+00 -1.91049882E+01  0.00000000E+00
  9.55249411E+00  9.55249411E+00 -1.91049882E+01  0.00000000E+00  9.55249411E+00
  9.55249411E+00 -1.91049882E+01  0.00000000E+00  9.55249411E+00  9.55249411E+00
 -1.91049882E+01  0.00000000E+00  9.55249411E+00  9.55249411E+00 -1.91049882E+01
  0.00000000E+00  9.55249411E+00  9.55249411E+00 -1.91049882E+01  0.00000000E+00
  9.55249411E+00  9.55249411E+00 -1.91049882E+01  0.00000000E+00  9.55249411E+00
  9.55249411E+00 -1.91049882E+01  0.00000000E+00  9.55249411E+00  9.55249411E+00
 -1.91049882E+01  0.00000000E+00  9.55249411E+00  9.55249411E+00 -1.91049882E+01
  0.00000000E+00  9.55249411E+00  9.55249411E+00 -1.91049882E+01  0.00000000E+00
  9.55249411E+00  9.55249411E+00 -1.91049882E+01  0.00000000E+00  9.55249411E+00
  9.55249411E+00 -1.91049882E+01  0.00000000E+00  9.55249411E+00  9.55249411E+00
 -1.91049882E+01  0.00000000E+00  9.55249411E+00  9.55249411E+00 -1.91049882E+01
  0.00000000E+00  9.55249411E+00  9.55249411E+00 -1.91049882E+01  0.00000000E+00
  9.55249411E+00  9.55249411E+00 -1.91049882E+01  0.00000000E+00  9.55249411E+00
  9.55249411E+00 -1.91049882E+01  0.00000000E+00  9.55249411E+00  9.55249411E+00
 -1.91049882E+01  0.00000000E+00  9.55249411E+00  9.55249411E+00 -1.91049882E+01
  0.00000000E+00  9.55249411E+00  9.55249411E+00 -1.91049882E+01  0.00000000E+00
  9.55249411E+00  9.55249411E+00 -1.91049882E+01  0.00000000E+00  9.55249411E+00
  9.55249411E+00 -1.91049882E+01  0.00000000E+00  9.55249411E+00  9.55249411E+00
 -1.91049882E+01  0.00000000E+00  9.55249411E+00  9.55249411E+00 -1.91049882E+01
  0.00000000E+00  9.55249411E+00  9.55249411E+00 -1.91049882E+01  0.00000000E+00
  9.55249411E+00  9.55249411E+00 -1.91049882E+01  0.00000000E+00  9.55249411E+00
  9.55249411E+00 -1.91049882E+01  0.00000000E+00  9.55249411E+00  9.55249411E+00
 -1.91049882E+01  0.00000000E+00  9.55249411E+00  9.55249411E+00 -1.91049882E+01
  0.00000000E+00  9.55249411E+00  9.55249411E+00 -1.91049882E+01  0.00000000E+00
  9.55249411E+00  9.55249411E+00 -1.91049882E+01  0.00000000E+00  9.55249411E+00
  9.55249411E+00 -1.91049882E+01  0.00000000E+00  9.55249411E+00  9.55249411E+00
 -1.91049882E+01  0.00000000E+00  9.55249411E+00  9.55249411E+00 -1.91049882E+01
  0.00000000E+00  9.55249411E+00  9.55249411E+00 -1.91049882E+01  0.00000000E+00
  9.55249411E+00  9.55249411E+00 -1.91049882E+01  0.00000000E+00  9.55249411E+00
  9.55249411E+00 -1.91049882E+01  0.00000000E+00  9.55249411E+00  9.55249411E+00
 -1.91049882E+01  0.00000000E+00  9.55249411E+00  9.55249411E+00 -1.91049882E+01
  0.00000000E+00  9.55249411E+00  9.55249411E+00 -1.91049882E+01  0.00000000E+00
  9.55249411E+00  9.55249411E+00 -1.91049882E+01  0.00000000E+00  9.55249411E+00
  9.55249411E+00 -1.91049882E+01  0.00000000E+00  9.55249411E+00  9.55249411E+00
 -1.91049882E+01  0.00000000E+00  9.55249411E+00  9.55249411E+00 -1.91049882E+01
  0.00000000E+00  9.55249411E+00  9.55249411E+00 -1.91049882E+01  0.00000000E+00
  9.55249411E+00  9.55249411E+00 -1.91049882E+01  0.00000000E+00  9.55249411E+00
  9.55249411E+00 -1.91049882E+01  0.00000000E+00  9.55249411E+00  9.55249411E+00
 -1.91049882E+01  0.00000000E+00  9.55249411E+00  9.55249411E+00 -1.91049882E+01
  0.00000000E+00  9.55249411E+00  9.55249411E+00 -1.91049882E+01  0.00000000E+00
  9.55249411E+00  9.55249411E+00 -1.91049882E+01  0.00000000E+00  9.55249411E+00
  9.55249411E+00 -1.91049882E+01  0.00000000E+00  9.55249411E+00  9.55249411E+00
 -1.91049882E+01  0.00000000E+00  9.55249411E+00  9.55249411E+00 -1.91049882E+01
  0.00000000E+00  9.55249411E+00  9.55249411E+00 -1.91049882E+01  0.00000000E+00
  9.55249411E+00  9.55249411E+00 -1.91049882E+01  0.00000000E+00  9.55249411E+00
  9.55249411E+00 -1.91049882E+01  0.00000000E+00  9.55249411E+00  9.55249411E+00
 -1.91049882E+01  0.00000000E+00  9.55249411E+00  9.55249411E+00 -1.91049882E+01
  0.00000000E+00  9.55249411E+00  9.55249411E+00 -1.91049882E+01  0.00000000E+00
  9.55249411E+00  9.55249411E+00 -1.91049882E+01  0.00000000E+00  9.55249411E+00
  9.55249411E+00 -1.91049882E+01  0.00000000E+00  9.55249411E+00  9.55249411E+00
 -1.91049882E+01  0.00000000E+00  9.55249411E+00  9.55249411E+00 -1.91049882E+01
  0.00000000E+00  9.55249411E+00  9.55249411E+00 -1.91049882E+01  0.00000000E+00
  9.55249411E+00  9.55249411E+00 -1.91049882E+01  0.00000000E+00  9.55249411E+00
  9.55249411E+00 -1.91049882E+01  0.00000000E+00  9.55249411E+00  9.55249411E+00
 -1.91049882E+01  0.00000000E+00  9.55249411E+00  9.55249411E+00 -1.91049882E+01
  0.00000000E+00  9.55249411E+00  9.55249411E+00 -1.91049882E+01  0.00000000E+00
  9.55249411E+00  9.55249411E+00 -1.91049882E+01  0.00000000E+00  9.55249411E+00
  9.55249411E+00 -1.91049882E+01  0.00000000E+00  9.55249411E+00  9.55249411E+00
 -1.91049882E+01  0.00000000E+00  9.55249411E+00  9.55249411E+00 -1.91049882E+01
  0.00000000E+00  9.55249411E+00  9.55249411E+00 -1.91049882E+01  0.00000000E+00
  9.55249411E+00  9.55249411E+00 -1.91049882E+01  0.00000000E+00  9.55249411E+00
  9.55249411E+00 -1.91049882E+01  0.00000000E+00  9.55249411E+00  9.55249411E+00
 -1.91049882E+01  0.00000000E+00  9.55249411E+00  9.55249411E+00 -1.91049882E+01
  0.00000000E+00  9.55249411E+00  9.55249411E+00 -1.91049882E+01  0.00000000E+00
  9.55249411E+00  9.55249411E+00 -1.91049882E+01  0.00000000E+00  9.55249411E+00
  9.55249411E+00 -1.91049882E+01  0.00000000E+00  9.55249411E+00  9.55249411E+00
 -1.91049882E+01  0.00000000E+00  9.55249411E+00  9.55249411E+00 -1.91049882E+01
  0.00000000E+00  9.55249411E+00  9.55249411E+00 -1.91049882E+01  0.00000000E+00
  9.55249411E+00  9.55249411E+00 -1.91049882E+01  0.00000000E+00  9.55249411E+00
  9.55249411E+00 -1.91049882E+01  0.00000000E+00  9.55249411E+00  9.55249411E+00
 -1.91049882E+01  0.00000000E+00  9.55249411E+00  9.55249411E+00 -1.91049882E+01
  0.00000000E+00  9.55249411E+00  9.55249411E+00 -1.91049882E+01  0.00000000E+00
  9.55249411E+00  9.55249411E+00 -1.91049882E+01  0.00000000E+00  9.55249411E+00
  9.55249411E+00 -1.91049882E+01  0.00000000E+00  9.55249411E+00  9.55249411E+00
 -1.91049882E+01  0.00000000E+00  9.55249411E+00  9.55249411E+00 -1.91049882E+01
  0.00000000E+00  9.55249411E+00  9.55249411E+00 -1.91049882E+01  0.00000000E+00
  9.55249411E+00  9.55249411E+00 -1.91049882E+01  0.00000000E+00  9.55249411E+00
  9.55249411E+00 -1.91049882E+01  0.00000000E+00  9.55249411E+00  9.55249411E+00
 -1.91049882E+01  0.00000000E+00  9.55249411E+00  9.55249411E+00 -1.91049882E+01
  0.00000000E+00  9.55249411E+00  9.55249411E+00 -1.91049882E+01  0.00000000E+00
  9.55249411E+00  9.55249411E+00 -1.91049882E+01  0.00000000E+00  9.55249411E+00
  9.55249411E+00 -1.91049882E+01  0.00000000E+00  9.55249411E+00  9.55249411E+00
 -1.91049882E+01  0.00000000E+00  9.55249411E+00  9.55249411E+00 -1.91049882E+01
  0.00000000E+00  9.55249411E+00  9.55249411E+00 -1.91049882E+01  0.00000000E+00
  9.55249411E+00  9.55249411E+00 -1.91049882E+01  0.00000000E+00  9.55249411E+00
  9.55249411E+00 -1.91049882E+01  0.00000000E+00  9.55249411E+00  9.55249411E+00
 -1.91049882E+01  0.00000000E+00  9.55249411E+00  9.55249411E+00 -1.91049882E+01
  0.00000000E+00  9.55249411E+00  9.55249411E+00 -1.91049882E+01  0.00000000E+00
  9.55249411E+00  9.55249411E+00 -1.91049882E+01  0.00000000E+00  9.55249411E+00
  9.55249411E+00 -1.91049882E+01  0.00000000E+00  9.55249411E+00  9.55249411E+00
 -1.91049882E+01  0.00000000E+00  9.55249411E+00  9.55249411E+00 -1.91049882E+01
  0.00000000E+00  9.55249411E+00  9.55249411E+00 -1.91049882E+01  0.00000000E+00
  9.55249411E+00  9.55249411E+00 -1.91049882E+01  0.00000000E+00  9.55249411E+00
  9.55249411E+00 -1.91049882E+01  0.00000000E+00  9.55249411E+00  9.55249411E+00
 -1.91049882E+01  0.00000000E+00  9.55249411E+00  9.55249411E+00 -1.91049882E+01
  0.00000000E+00  9.55249411E+00  9.55249411E+00 -1.91049882E+01  0.00000000E+00
  9.55249411E+00  9.55249411E+00 -1.91049882E+01  0.00000000E+00  9.55249411E+00
  9.55249411E+00 -1.91049882E+01  0.00000000E+00  9.55249411E+00  9.55249411E+00
 -1.91049882E+01  0.00000000E+00  9.55249411E+00  9.55249411E+00 -1.91049882E+01
  0.00000000E+00  9.55249411E+00  9.55249411E+00 -1.91049882E+01  0.00000000E+00
  9.55249411E+00  9.55249411E+00 -1.91049882E+01  0.00000000E+00  9.55249411E+00
  9.55249411E+00 -1.91049882E+01  0.00000000E+00  9.55249411E+00  9.55249411E+00
 -1.91049882E+01  0.00000000E+00  9.55249411E+00  9.55249411E+00 -1.91049882E+01
  0.00000000E+00  9.55249411E+00  9.55249411E+00 -1.91049882E+01  0.00000000E+00
  9.55249411E+00  9.55249411E+00 -1.91049882E+01  0.00000000E+00  9.55249411E+00
  9.55249411E+00 -1.91049882E+01  0.00000000E+00  9.55249411E+00  9.55249411E+00
 -1.91049882E+01  0.00000000E+00  9.55249411E+00  9.55249411E+00 -1.91049882E+01
  0.00000000E+00  9.55249411E+00  9.55249411E+00 -1.91049882E+01  0.00000000E+00
  9.55249411E+00  9.55249411E+00 -1.91049882E+01  0.00000000E+00  9.55249411E+00
  9.55249411E+00 -1.91049882E+01  0.00000000E+00  9.55249411E+00  9.55249411E+00
 -1.91049882E+01  0.00000000E+00  9.55249411E+00  9.55249411E+00 -1.91049882E+01
  0.00000000E+00  9.55249411E+00  9.55249411E+00 -1.91049882E+01  0.00000000E+00
  9.55249411E+00  9.55249411E+00 -1.91049882E+01  0.00000000E+00  9.55249411E+00
  9.55249411E+00 -1.91049882E+01  0.00000000E+00  9.55249411E+00  9.55249411E+00
 -1.91049882E+01  0.00000000E+00  9.55249411E+00  9.55249411E+00 -1.91049882E+01
  0.00000000E+00  9.55249411E+00  9.55249411E+00 -1.91049882E+01  0.00000000E+00
  9.55249411E+00  9.55249411E+00 -1.91049882E+01  0.00000000E+00  9.55249411E+00
  9.55249411E+00 -1.91049882E+01  0.00000000E+00  9.55249411E+00  9.55249411E+00
 -1.91049882E+01  0.00000000E+00  9.55249411E+00  9.55249411E+00 -1.91049882E+01
  0.00000000E+00  9.55249411E+00  9.55249411E+00 -1.91049882E+01  0.00000000E+00
  9.55249411E+00  9.55249411E+00 -1.91049882E+01  0.00000000E+00  9.55249411E+00
  9.55249411E+00 -1.91049882E+01  0.00000000E+00  9.55249411E+00  9.55249411E+00
 -1.91049882E+01  0.00000000E+00  9.55249411E+00  9.55249411E+00 -1.91049882E+01
  0.00000000E+00  9.55249411E+00  9.55249411E+00 -1.91049882E+01  0.00000000E+00
  9.55249411E+00  9.55249411E+00 -1.91049882E+01  0.00000000E+00  9.55249411E+00
  9.55249411E+00 -1.91049882E+01  0.00000000E+00  9.55249411E+00  9.55249411E+00
 -1.91049882E+01  0.00000000E+00  9.55249411E+00  9.55249411E+00 -1.91049882E+01
  0.00000000E+00  9.55249411E+00  9.55249411E+00 -1.91049882E+01  0.00000000E+00
  9.55249411E+00  9.55249411E+00 -1.91049882E+01  0.00000000E+00  9.55249411E+00
  9.55249411E+00 -1.91049882E+01  0.00000000E+00  9.55249411E+00  9.55249411E+00
 -1.91049882E+01  0.00000000E+00  9.55249411E+00  9.55249411E+00 -1.91049882E+01
  0.00000000E+00  9.55249411E+00  9.55249411E+00 -1.91049882E+01  0.00000000E+00
  9.55249411E+00  9.55249411E+00 -1.91049882E+01  0.00000000E+00  9.55249411E+00
  9.55249411E+00 -1.91049882E+01  0.00000000E+00  9.55249411E+00  9.55249411E+00
 -1.91049882E+01  0.00000000E+00  9.55249411E+00  9.55249411E+00 -1.91049882E+01
  0.00000000E+00  9.55249411E+00  9.55249411E+00 -1.91049882E+01  0.00000000E+00
  9.55249411E+00  9.55249411E+00 -1.91049882E+01  0.00000000E+00  9.55249411E+00
  9.55249411E+00 -1.91049882E+01  0.00000000E+00  9.55249411E+00  9.55249411E+00
 -1.91049882E+01  0.00000000E+00  9.55249411E+00  9.55249411E+00 -1.91049882E+01
  0.00000000E+00  9.55249411E+00  9.55249411E+00 -1.91049882E+01  0.00000000E+00
  9.55249411E+00  9.55249411E+00 -1.91049882E+01  0.00000000E+00  9.55249411E+00
  9.55249411E+00 -1.91049882E+01  0.00000000E+00  9.55249411E+00  9.55249411E+00
 -1.91049882E+01  0.00000000E+00  9.55249411E+00  9.55249411E+00 -1.91049882E+01
  0.00000000E+00  9.55249411E+00  9.55249411E+00 -1.91049882E+01  0.00000000E+00
  9.55249411E+00  9.55249411E+00 -1.91049882E+01  0.00000000E+00  9.55249411E+00
  9.55249411E+00 -1.91049882E+01  0.00000000E+00  9.55249411E+00  9.55249411E+00
 -1.91049882E+01  0.00000000E+00  9.55249411E+00  9.55249411E+00 -1.91049882E+01
  0.00000000E+00  9.55249411E+00  9.55249411E+00 -1.91049882E+01  0.00000000E+00
  9.55249411E+00  9.55249411E+00 -1.91049882E+01  0.00000000E+00  9.55249411E+00
  9.55249411E+00 -1.91049882E+01  0.00000000E+00  9.55249411E+00  9.55249411E+00
 -1.91049882E+01  0.00000000E+00  9.55249411E+00  9.55249411E+00 -1.91049882E+01
  0.00000000E+00  9.55249411E+00  9.55249411E+00 -1.91049882E+01  0.00000000E+00
  9.55249411E+00  9.55249411E+00 -1.91049882E+01  0.00000000E+00  9.55249411E+00
  9.55249411E+00 -1.91049882E+01  0.00000000E+00  9.55249411E+00  9.55249411E+00
 -1.91049882E+01  0.00000000E+00  9.55249411E+00  9.55249411E+00 -1.91049882E+01
  0.00000000E+00  9.55249411E+00  9.55249411E+00 -1.91049882E+01  0.00000000E+00
  9.55249411E+00  9.55249411E+00 -1.91049882E+01  0.00000000E+00  9.55249411E+00
  9.55249411E+00 -1.91049882E+01  0.00000000E+00  9.55249411E+00  9.55249411E+00
 -1.91049882E+01  0.00000000E+00  9.55249411E+00  9.55249411E+00 -1.91049882E+01
  0.00000000E+00  9.55249411E+00  9.55249411E+00 -1.91049882E+01  0.00000000E+00
  9.55249411E+00  9.55249411E+00 -1.91049882E+01  0.00000000E+00  9.55249411E+00
  9.55249411E+00 -1.91049882E+01  0.00000000E+00  9.55249411E+00  9.55249411E+00
 -1.91049882E+01  0.00000000E+00  9.55249411E+00  9.55249411E+00 -1.91049882E+01
  0.00000000E+00  9.55249411E+00  9.55249411E+00 -1.91049882E+01  0.00000000E+00
  9.55249411E+00  9.55249411E+00 -1.91049882E+01  0.00000000E+00  9.55249411E+00
  9.55249411E+00 -1.91049882E+01  0.00000000E+00  9.55249411E+00  9.55249411E+00
 -1.91049882E+01  0.00000000E+00  9.55249411E+00  9.55249411E+00 -1.91049882E+01
  0.00000000E+00  9.55249411E+00  9.55249411E+00 -1.91049882E+01  0.00000000E+00
  9.55249411E+00  9.55249411E+00 -1.91049882E+01  0.00000000E+00  9.55249411E+00
  9.55249411E+00 -1.91049882E+01  0.00000000E+00  9.55249411E+00  9.55249411E+00
 -1.91049882E+01  0.00000000E+00  9.55249411E+00  9.55249411E+00 -1.91049882E+01
  0.00000000E+00  9.55249411E+00  9.55249411E+00 -1.91049882E+01  0.00000000E+00
  9.55249411E+00  9.55249411E+00 -1.91049882E+01  0.00000000E+00  9.55249411E+00
  9.55249411E+00 -1.91049882E+01  0.00000000E+00  9.55249411E+00  9.55249411E+00
 -1.91049882E+01  0.00000000E+00  9.55249411E+00  9.55249411E+00 -1.91049882E+01
  0.00000000E+00  9.55249411E+00  9.55249411E+00 -1.91049882E+01  0.00000000E+00
  9.55249411E+00  9.55249411E+00 -1.91049882E+01  0.00000000E+00  9.55249411E+00
  9.55249411E+00 -1.91049882E+01  0.00000000E+00  9.55249411E+00  9.55249411E+00
 -1.91049882E+01  0.00000000E+00  9.55249411E+00  9.55249411E+00 -1.91049882E+01
  0.00000000E+00  9.55249411E+00  9.55249411E+00 -1.91049882E+01  0.00000000E+00
  9.55249411E+00  9.55249411E+00 -1.91049882E+01  0.00000000E+00  9.55249411E+00
  9.55249411E+00 -1.91049882E+01  0.00000000E+00  9.55249411E+00  9.55249411E+00
 -1.91049882E+01  0.00000000E+00  9.55249411E+00  9.55249411E+00 -1.91049882E+01
  0.00000000E+00  9.55249411E+00  9.55249411E+00 -1.91049882E+01  0.00000000E+00
  9.55249411E+00  9.55249411E+00 -1.91049882E+01  0.00000000E+00  9.55249411E+00
  9.55249411E+00 -1.91049882E+01  0.00000000E+00  9.55249411E+00  9.55249411E+00
 -1.91049882E+01  0.00000000E+00  9.55249411E+00  9.55249411E+00 -1.91049882E+01
  0.00000000E+00  9.55249411E+00  9.55249411E+00 -1.91049882E+01  0.00000000E+00
  9.55249411E+00  9.55249411E+00 -1.91049882E+01  0.00000000E+00  9.55249411E+00
  9.55249411E+00 -1.91049882E+01  0.00000000E+00  9.55249411E+00  9.55249411E+00
 -1.91049882E+01  0.00000000E+00  9.55249411E+00  9.55249411E+00 -1.91049882E+01
  0.00000000E+00  9.55249411E+00  9.55249411E+00 -1.91049882E+01  0.00000000E+00
  9.55249411E+00  9.55249411E+00 -1.91049882E+01  0.00000000E+00  9.55249411E+00
  9.55249411E+00 -1.91049882E+01  0.00000000E+00  9.55249411E+00  9.55249411E+00
 -1.91049882E+01  0.00000000E+00  9.55249411E+00  9.55249411E+00 -1.91049882E+01
  0.00000000E+00  9.55249411E+00  9.55249411E+00 -1.91049882E+01  0.00000000E+00
  9.55249411E+00  9.55249411E+00 -1.91049882E+01  0.00000000E+00  9.55249411E+00
  9.55249411E+00 -1.91049882E+01  0.00000000E+00  9.55249411E+00  9.55249411E+00
 -1.91049882E+01  0.00000000E+00  9.55249411E+00  9.55249411E+00 -1.91049882E+01
  0.00000000E+00  9.55249411E+00  9.55249411E+00 -1.91049882E+01  0.00000000E+00
  9.55249411E+00  9.55249411E+00 -1.91049882E+01  0.00000000E+00  9.55249411E+00
  9.55249411E+00 -1.91049882E+01  0.00000000E+00  9.55249411E+00  9.55249411E+00
 -1.91049882E+01  0.00000000E+00  9.55249411E+00  9.55249411E+00 -1.91049882E+01
  0.00000000E+00  9.55249411E+00  9.55249411E+00 -1.91049882E+01  0.00000000E+00
  9.55249411E+00  9.55249411E+00 -1.91049882E+01  0.00000000E+00  9.55249411E+00
  9.55249411E+00 -1.91049882E+01  0.00000000E+00  9.55249411E+00  9.55249411E+00
 -1.91049882E+01  0.00000000E+00  9.55249411E+00  9.55249411E+00 -1.91049882E+01
  0.00000000E+00  9.55249411E+00  9.55249411E+00 -1.91049882E+01  0.00000000E+00
  9.55249411E+00  9.55249411E+00 -1.91049882E+01  0.00000000E+00  9.55249411E+00
  9.55249411E+00 -1.91049882E+01  0.00000000E+00  9.55249411E+00  9.55249411E+00
 -1.91049882E+01  0.00000000E+00  9.55249411E+00  9.55249411E+00 -1.91049882E+01
  0.00000000E+00  9.55249411E+00  9.55249411E+00 -1.91049882E+01  0.00000000E+00
  9.55249411E+00  9.55249411E+00 -1.91049882E+01  0.00000000E+00  9.55249411E+00
  9.55249411E+00 -1.91049882E+01  0.00000000E+00  9.55249411E+00  9.55249411E+00
 -1.91049882E+01  0.00000000E+00  9.55249411E+00  9.55249411E+00 -1.91049882E+01
  0.00000000E+00  9.55249411E+00  9.55249411E+00 -1.91049882E+01  0.00000000E+00
  9.55249411E+00  9.55249411E+00 -1.91049882E+01  0.00000000E+00  9.55249411E+00
  9.55249411E+00 -1.91049882E+01  0.00000000E+00  9.55249411E+00  9.55249411E+00
 -1.91049882E+01  0.00000000E+00  9.55249411E+00  9.55249411E+00 -1.91049882E+01
  0.00000000E+00  9.55249411E+00  9.55249411E+00 -1.91049882E+01  0.00000000E+00
  9.55249411E+00  9.55249411E+00 -1.91049882E+01  0.00000000E+00  9.55249411E+00
  9.55249411E+00 -1.91049882E+01  0.00000000E+00  9.55249411E+00  9.55249411E+00
 -1.91049882E+01  0.00000000E+00  9.55249411E+00  9.55249411E+00 -1.91049882E+01
  0.00000000E+00  9.55249411E+00  9.55249411E+00 -1.91049882E+01  0.00000000E+00
  9.55249411E+00  9.55249411E+00 -1.91049882E+01  0.00000000E+00  9.55249411E+00
  9.55249411E+00 -1.91049882E+01  0.00000000E+00  9.55249411E+00  9.55249411E+00
 -1.91049882E+01  0.00000000E+00  9.55249411E+00  9.55249411E+00 -1.91049882E+01
  0.00000000E+00  9.55249411E+00  9.55249411E+00 -1.91049882E+01  0.00000000E+00
  9.55249411E+00  9.55249411E+00 -1.91049882E+01  0.00000000E+00  9.55249411E+00
  9.55249411E+00 -1.91049882E+01  0.00000000E+00  9.55249411E+00  9.55249411E+00
 -1.91049882E+01  0.00000000E+00  9.55249411E+00  9.55249411E+00 -1.91049882E+01
  0.00000000E+00  9.55249411E+00  9.55249411E+00 -1.91049882E+01  0.00000000E+00
  9.55249411E+00  9.55249411E+00 -1.91049882E+01  0.00000000E+00  9.55249411E+00
  9.55249411E+00 -1.91049882E+01  0.00000000E+00  9.55249411E+00  9.55249411E+00
 -1.91049882E+01  0.00000000E+00  9.55249411E+00  9.55249411E+00 -1.91049882E+01
  0.00000000E+00  9.55249411E+00  9.55249411E+00 -1.91049882E+01  0.00000000E+00
  9.55249411E+00  9.55249411E+00 -1.91049882E+01  0.00000000E+00  9.55249411E+00
  9.55249411E+00 -1.91049882E+01  0.00000000E+00  9.55249411E+00  9.55249411E+00
 -1.91049882E+01  0.00000000E+00  9.55249411E+00  9.55249411E+00 -1.91049882E+01
  0.00000000E+00  9.55249411E+00  9.55249411E+00 -1.91049882E+01  0.00000000E+00
  9.55249411E+00  9.55249411E+00 -1.91049882E+01  0.00000000E+00  9.55249411E+00
  9.55249411E+00 -1.91049882E+01  0.00000000E+00  9.55249411E+00  9.55249411E+00
 -1.91049882E+01  0.00000000E+00  9.55249411E+00  9.55249411E+00 -1.91049882E+01
  0.00000000E+00  9.55249411E+00  9.55249411E+00 -1.91049882E+01  0.00000000E+00
  9.55249411E+00  9.55249411E+00 -1.91049882E+01  0.00000000E+00  9.55249411E+00
  9.55249411E+00 -1.91049882E+01  0.00000000E+00  9.55249411E+00  9.55249411E+00
 -1.91049882E+01  0.00000000E+00  9.55249411E+00  9.55249411E+00 -1.91049882E+01
  0.00000000E+00  9.55249411E+00  9.55249411E+00 -1.91049882E+01  0.00000000E+00
  9.55249411E+00  9.55249411E+00 -1.91049882E+01  0.00000000E+00  9.55249411E+00
  9.55249411E+00 -1.91049882E+01  0.00000000E+00  9.55249411E+00  9.55249411E+00
 -1.91049882E+01  0.00000000E+00  9.55249411E+00  9.55249411E+00 -1.91049882E+01
  0.00000000E+00  9.55249411E+00  9.55249411E+00 -1.91049882E+01  0.00000000E+00
  9.55249411E+00  9.55249411E+00 -1.91049882E+01  0.00000000E+00  9.55249411E+00
  9.55249411E+00 -1.91049882E+01  0.00000000E+00  9.55249411E+00  9.55249411E+00
 -1.91049882E+01  0.00000000E+00  9.55249411E+00  9.55249411E+00 -1.91049882E+01
  0.00000000E+00  9.55249411E+00  9.55249411E+00 -1.91049882E+01  0.00000000E+00
  9.55249411E+00  9.55249411E+00 -1.91049882E+01  0.00000000E+00  9.55249411E+00
  9.55249411E+00 -1.91049882E+01  0.00000000E+00  9.55249411E+00  9.55249411E+00
 -1.91049882E+01  0.00000000E+00  9.55249411E+00  9.55249411E+00 -1.91049882E+01
  0.00000000E+00  9.55249411E+00  9.55249411E+00 -1.91049882E+01  0.00000000E+00
  9.55249411E+00  9.55249411E+00 -1.91049882E+01  0.00000000E+00  9.55249411E+00
  9.55249411E+00 -1.91049882E+01  0.00000000E+00  9.55249411E+00  9.55249411E+00
 -1.91049882E+01  0.00000000E+00  9.55249411E+00  9.55249411E+00 -1.91049882E+01
  0.00000000E+00  9.55249411E+00  9.55249411E+00 -1.91049882E+01  0.00000000E+00
  9.55249411E+00  9.55249411E+00 -1.91049882E+01  0.00000000E+00  9.55249411E+00
  9.55249411E+00 -1.91049882E+01  0.00000000E+00  9.55249411E+00  9.55249411E+00
 -1.91049882E+01  0.00000000E+00  9.55249411E+00  9.55249411E+00 -1.91049882E+01
  0.00000000E+00  9.55249411E+00  9.55249411E+00 -1.91049882E+01  0.00000000E+00
  9.55249411E+00  9.55249411E+00 -1.91049882E+01  0.00000000E+00  9.55249411E+00
  9.55249411E+00 -1.91049882E+01  0.00000000E+00  9.55249411E+00  9.55249411E+00
 -1.91049882E+01  0.00000000E+00  9.55249411E+00  9.55249411E+00 -1.91049882E+01
  0.00000000E+00  9.55249411E+00  9.55249411E+00 -1.91049882E+01  0.00000000E+00
  9.55249411E+00  9.55249411E+00 -1.91049882E+01  0.00000000E+00  9.55249411E+00
  9.55249411E+00 -1.91049882E+01  0.00000000E+00  9.55249411E+00  9.55249411E+00
 -1.91049882E+01  0.00000000E+00  9.55249411E+00  9.55249411E+00 -1.91049882E+01
  0.00000000E+00  9.55249411E+00  9.55249411E+00 -1.91049882E+01  0.00000000E+00
  9.55249411E+00  9.55249411E+00 -1.91049882E+01  0.00000000E+00  9.55249411E+00
  9.55249411E+00 -1.91049882E+01  0.00000000E+00  9.55249411E+00  9.55249411E+00
 -1.91049882E+01  0.00000000E+00  9.55249411E+00  9.55249411E+00 -1.91049882E+01
  0.00000000E+00  9.55249411E+00  9.55249411E+00 -1.91049882E+01  0.00000000E+00
  9.55249411E+00  9.55249411E+00 -1.91049882E+01  0.00000000E+00  9.55249411E+00
  9.55249411E+00 -1.91049882E+01  0.00000000E+00  9.55249411E+00  9.55249411E+00
 -1.91049882E+01  0.00000000E+00  9.55249411E+00  9.55249411E+00 -1.91049882E+01
  0.00000000E+00  9.55249411E+00  9.55249411E+00 -1.91049882E+01  0.00000000E+00
  9.55249411E+00  9.55249411E+00 -1.91049882E+01  0.00000000E+00  9.55249411E+00
  9.55249411E+00 -1.91049882E+01  0.00000000E+00  9.55249411E+00  9.55249411E+00
 -1.91049882E+01  0.00000000E+00  9.55249411E+00  9.55249411E+00 -1.91049882E+01
  0.00000000E+00  9.55249411E+00  9.55249411E+00 -1.91049882E+01  0.00000000E+00
  9.55249411E+00  9.55249411E+00 -1.91049882E+01  0.00000000E+00  9.55249411E+00
  9.55249411E+00 -1.91049882E+01  0.00000000E+00  9.55249411E+00  9.55249411E+00
 -1.91049882E+01  0.00000000E+00  9.55249411E+00  9.55249411E+00 -1.91049882E+01
  0.00000000E+00  9.55249411E+00  9.55249411E+00 -1.91049882E+01  0.00000000E+00
  9.55249411E+00  9.55249411E+00 -1.91049882E+01  0.00000000E+00  9.55249411E+00
  9.55249411E+00 -1.91049882E+01  0.00000000E+00  9.55249411E+00  9.55249411E+00
 -1.91049882E+01  0.00000000E+00  9.55249411E+00  9.55249411E+00 -1.91049882E+01
  0.00000000E+00  9.55249411E+00  9.55249411E+00 -1.91049882E+01  0.00000000E+00
  9.55249411E+00  9.55249411E+00 -1.91049882E+01  0.00000000E+00  9.55249411E+00
  9.55249411E+00 -1.91049882E+01  0.00000000E+00  9.55249411E+00  9.55249411E+00
 -1.91049882E+01  0.00000000E+00  9.55249411E+00  9.55249411E+00 -1.91049882E+01
  0.00000000E+00  9.55249411E+00  9.55249411E+00 -1.91049882E+01  0.00000000E+00
  9.55249411E+00  9.55249411E+00 -1.91049882E+01  0.00000000E+00  9.55249411E+00
  9.55249411E+00 -1.91049882E+01  0.00000000E+00  9.55249411E+00  9.55249411E+00
 -1.91049882E+01  0.00000000E+00  9.55249411E+00  9.55249411E+00 -1.91049882E+01
  0.00000000E+00  9.55249411E+00  9.55249411E+00 -1.91049882E+01  0.00000000E+00
  9.55249411E+00  9.55249411E+00 -1.91049882E+01  0.00000000E+00  9.55249411E+00
  9.55249411E+00 -1.91049882E+01  0.00000000E+00  9.55249411E+00  9.55249411E+00
 -1.91049882E+01  0.00000000E+00  9.55249411E+00  9.55249411E+00 -1.91049882E+01
  0.00000000E+00  9.55249411E+00  9.55249411E+00 -1.91049882E+01  0.00000000E+00
  9.55249411E+00  9.55249411E+00 -1.91049882E+01  0.00000000E+00  9.55249411E+00
  9.55249411E+00 -1.91049882E+01  0.00000000E+00  9.55249411E+00  9.55249411E+00
 -1.91049882E+01  0.00000000E+00  9.55249411E+00  9.55249411E+00 -1.91049882E+01
  0.00000000E+00  9.55249411E+00  9.55249411E+00 -1.91049882E+01  0.00000000E+00
  9.55249411E+00  9.55249411E+00 -1.91049882E+01  0.00000000E+00  9.55249411E+00
  9.55249411E+00 -1.91049882E+01  0.00000000E+00  9.55249411E+00  9.55249411E+00
 -1.91049882E+01  0.00000000E+00  9.55249411E+00  9.55249411E+00 -1.91049882E+01
  0.00000000E+00  9.55249411E+00  9.55249411E+00 -1.91049882E+01  0.00000000E+00
  9.55249411E+00  9.55249411E+00 -1.91049882E+01  0.00000000E+00  9.55249411E+00
  9.55249411E+00 -1.91049882E+01  0.00000000E+00  9.55249411E+00  9.55249411E+00
 -1.91049882E+01  0.00000000E+00  9.55249411E+00  9.55249411E+00 -1.91049882E+01
  0.00000000E+00  9.55249411E+00  9.55249411E+00 -1.91049882E+01  0.00000000E+00
  9.55249411E+00  9.55249411E+00 -1.91049882E+01  0.00000000E+00  9.55249411E+00
  9.55249411E+00 -1.91049882E+01  0.00000000E+00  9.55249411E+00  9.55249411E+00
 -1.91049882E+01  0.00000000E+00  9.55249411E+00  9.55249411E+00 -1.91049882E+01
  0.00000000E+00  9.55249411E+00  9.55249411E+00 -1.91049882E+01  0.00000000E+00
  9.55249411E+00  9.55249411E+00 -1.91049882E+01  0.00000000E+00  9.55249411E+00
  9.55249411E+00 -1.91049882E+01  0.00000000E+00  9.55249411E+00  9.55249411E+00
 -1.91049882E+01  0.00000000E+00  9.55249411E+00  9.55249411E+00 -1.91049882E+01
  0.00000000E+00  9.55249411E+00  9.55249411E+00 -1.91049882E+01  0.00000000E+00
  9.55249411E+00  9.55249411E+00 -1.91049882E+01  0.00000000E+00  9.55249411E+00
  9.55249411E+00 -1.91049882E+01  0.00000000E+00  9.55249411E+00  9.55249411E+00
 -1.91049882E+01  0.00000000E+00  9.55249411E+00  9.55249411E+00 -1.91049882E+01
  0.00000000E+00  9.55249411E+00  9.55249411E+00 -1.91049882E+01  0.00000000E+00
  9.55249411E+00  9.55249411E+00 -1.91049882E+01  0.00000000E+00  9.55249411E+00
  9.55249411E+00 -1.91049882E+01  0.00000000E+00  9.55249411E+00  9.55249411E+00
 -1.91049882E+01  0.00000000E+00  9.55249411E+00  9.55249411E+00 -1.91049882E+01
  0.00000000E+00  9.55249411E+00  9.55249411E+00 -1.91049882E+01  0.00000000E+00
  9.55249411E+00  9.55249411E+00 -1.91049882E+01  0.00000000E+00  9.55249411E+00
  9.55249411E+00 -1.91049882E+01  0.00000000E+00  9.55249411E+00  9.55249411E+00
 -1.91049882E+01  0.00000000E+00  9.55249411E+00  9.55249411E+00 -1.91049882E+01
  0.00000000E+00  9.55249411E+00  9.55249411E+00 -1.91049882E+01  0.00000000E+00
  9.55249411E+00  9.55249411E+00 -1.91049882E+01  0.00000000E+00  9.55249411E+00
  9.55249411E+00 -1.91049882E+01  0.00000000E+00  9.55249411E+00  9.55249411E+00
 -1.91049882E+01  0.00000000E+00  9.55249411E+00  9.55249411E+00 -1.91049882E+01
  0.00000000E+00  9.55249411E+00  9.55249411E+00 -1.91049882E+01  0.00000000E+00
  9.55249411E+00  9.55249411E+00 -1.91049882E+01  0.00000000E+00  9.55249411E+00
  9.55249411E+00 -1.91049882E+01  0.00000000E+00  9.55249411E+00  9.55249411E+00
 -1.91049882E+01  0.00000000E+00  9.55249411E+00  9.55249411E+00 -1.91049882E+01
  0.00000000E+00  9.55249411E+00  9.55249411E+00 -1.91049882E+01  0.00000000E+00
  9.55249411E+00  9.55249411E+00 -1.91049882E+01  0.00000000E+00  9.55249411E+00
  9.55249411E+00 -1.91049882E+01  0.00000000E+00  9.55249411E+00  9.55249411E+00
 -1.91049882E+01  0.00000000E+00  9.55249411E+00  9.55249411E+00 -1.91049882E+01
  0.00000000E+00  9.55249411E+00  9.55249411E+00 -1.91049882E+01  0.00000000E+00
  9.55249411E+00  9.55249411E+00 -1.91049882E+01  0.00000000E+00  9.55249411E+00
  9.55249411E+00 -1.91049882E+01  0.00000000E+00  9.55249411E+00  9.55249411E+00
 -1.91049882E+01  0.00000000E+00  9.55249411E+00  9.55249411E+00 -1.91049882E+01
  0.00000000E+00  9.55249411E+00  9.55249411E+00 -1.91049882E+01  0.00000000E+00
  9.55249411E+00  9.55249411E+00 -1.91049882E+01  0.00000000E+00  9.55249411E+00
  9.55249411E+00 -1.91049882E+01  0.00000000E+00  9.55249411E+00  9.55249411E+00
 -1.91049882E+01  0.00000000E+00  9.55249411E+00  9.55249411E+00 -1.91049882E+01
  0.00000000E+00  9.55249411E+00  9.55249411E+00 -1.91049882E+01  0.00000000E+00
  9.55249411E+00  9.55249411E+00 -1.91049882E+01  0.00000000E+00  9.55249411E+00
  9.55249411E+00 -1.91049882E+01  0.00000000E+00  9.55249411E+00  9.55249411E+00
 -1.91049882E+01  0.00000000E+00  9.55249411E+00  9.55249411E+00 -1.91049882E+01
  0.00000000E+00  9.55249411E+00  9.55249411E+00 -1.91049882E+01  0.00000000E+00
  9.55249411E+00  9.55249411E+00 -1.91049882E+01  0.00000000E+00  9.55249411E+00
  9.55249411E+00 -1.91049882E+01  0.00000000E+00  9.55249411E+00  9.55249411E+00
 -1.91049882E+01  0.00000000E+00  9.55249411E+00  9.55249411E+00 -1.91049882E+01
  0.00000000E+00  9.55249411E+00  9.55249411E+00 -1.91049882E+01  0.00000000E+00
  9.55249411E+00  9.55249411E+00 -1.91049882E+01  0.00000000E+00  9.55249411E+00
  9.55249411E+00 -1.91049882E+01  0.00000000E+00  9.55249411E+00  9.55249411E+00
 -1.91049882E+01  0.00000000E+00  9.55249411E+00  9.55249411E+00 -1.91049882E+01
  0.00000000E+00  9.55249411E+00  9.55249411E+00 -1.91049882E+01  0.00000000E+00
  9.55249411E+00  9.55249411E+00 -1.91049882E+01  0.00000000E+00  9.55249411E+00
  9.55249411E+00 -1.91049882E+01  0.00000000E+00  9.55249411E+00  9.55249411E+00
 -1.91049882E+01  0.00000000E+00  9.55249411E+00  9.55249411E+00 -1.91049882E+01
  0.00000000E+00  9.55249411E+00  9.55249411E+00 -1.91049882E+01  0.00000000E+00
  9.55249411E+00  9.55249411E+00 -1.91049882E+01  0.00000000E+00  9.55249411E+00
  9.55249411E+00 -1.91049882E+01  0.00000000E+00  9.55249411E+00  9.55249411E+00
 -1.91049882E+01  0.00000000E+00  9.55249411E+00  9.55249411E+00 -1.91049882E+01
  0.00000000E+00  9.55249411E+00  9.55249411E+00 -1.91049882E+01  0.00000000E+00
  9.55249411E+00  9.55249411E+00 -1.91049882E+01  0.00000000E+00  9.55249411E+00
  9.55249411E+00 -1.91049882E+01  0.00000000E+00  9.55249411E+00  9.55249411E+00
 -1.91049882E+01  0.00000000E+00  9.55249411E+00  9.55249411E+00 -1.91049882E+01
  0.00000000E+00  9.55249411E+00  9.55249411E+00 -1.91049882E+01  0.00000000E+00
  9.55249411E+00  9.55249411E+00 -1.91049882E+01  0.00000000E+00  9.55249411E+00
  9.55249411E+00 -1.91049882E+01  0.00000000E+00  9.55249411E+00  9.55249411E+00
 -1.91049882E+01  0.00000000E+00  9.55249411E+00  9.55249411E+00 -1.91049882E+01
  0.00000000E+00  9.55249411E+00  9.55249411E+00 -1.91049882E+01  0.00000000E+00
  9.55249411E+00  9.55249411E+00 -1.91049882E+01  0.00000000E+00  9.55249411E+00
  9.55249411E+00 -1.91049882E+01  0.00000000E+00  9.55249411E+00  9.55249411E+00
 -1.91049882E+01  0.00000000E+00  9.55249411E+00  9.55249411E+00 -1.91049882E+01
  0.00000000E+00  9.55249411E+00  9.55249411E+00 -1.91049882E+01  0.00000000E+00
  9.55249411E+00  9.55249411E+00 -1.91049882E+01  0.00000000E+00  9.55249411E+00
  9.55249411E+00 -1.91049882E+01  0.00000000E+00  9.55249411E+00  9.55249411E+00
 -1.91049882E+01  0.00000000E+00  9.55249411E+00  9.55249411E+00 -1.91049882E+01
  0.00000000E+00  9.55249411E+00  9.55249411E+00 -1.91049882E+01  0.00000000E+00
  9.55249411E+00  9.55249411E+00 -1.91049882E+01  0.00000000E+00  9.55249411E+00
  9.55249411E+00 -1.91049882E+01  0.00000000E+00  9.55249411E+00  9.55249411E+00
 -1.91049882E+01  0.00000000E+00  9.55249411E+00  9.55249411E+00 -1.91049882E+01
  0.00000000E+00  9.55249411E+00  9.55249411E+00 -1.91049882E+01  0.00000000E+00
  9.55249411E+00  9.55249411E+00 -1.91049882E+01  0.00000000E+00  9.55249411E+00
  9.55249411E+00 -1.91049882E+01  0.00000000E+00  9.55249411E+00  9.55249411E+00
 -1.91049882E+01  0.00000000E+00  9.55249411E+00  9.55249411E+00 -1.91049882E+01
  0.00000000E+00  9.55249411E+00  9.55249411E+00 -1.91049882E+01  0.00000000E+00
  9.55249411E+00  9.55249411E+00 -1.91049882E+01  0.00000000E+00  9.55249411E+00
  9.55249411E+00 -1.91049882E+01  0.00000000E+00  9.55249411E+00  9.55249411E+00
 -1.91049882E+01  0.00000000E+00  9.55249411E+00  9.55249411E+00 -1.91049882E+01
  0.00000000E+00  9.55249411E+00  9.55249411E+00 -1.91049882E+01  0.00000000E+00
  9.55249411E+00  9.55249411E+00 -1.91049882E+01  0.00000000E+00  9.55249411E+00
  9.55249411E+00 -1.91049882E+01  0.00000000E+00  9.55249411E+00  9.55249411E+00
 -1.91049882E+01  0.00000000E+00  9.55249411E+00  9.55249411E+00 -1.91049882E+01
  0.00000000E+00  9.55249411E+00  9.55249411E+00 -1.91049882E+01  0.00000000E+00
  9.55249411E+00  9.55249411E+00 -1.91049882E+01  0.00000000E+00  9.55249411E+00
  9.55249411E+00 -1.91049882E+01  0.00000000E+00  9.55249411E+00  9.55249411E+00
 -1.91049882E+01  0.00000000E+00  9.55249411E+00  9.55249411E+00 -1.91049882E+01
  0.00000000E+00  9.55249411E+00  9.55249411E+00 -1.91049882E+01  0.00000000E+00
  9.55249411E+00  9.55249411E+00 -1.91049882E+01  0.00000000E+00  9.55249411E+00
  9.55249411E+00 -1.91049882E+01  0.00000000E+00  9.55249411E+00  9.55249411E+00
 -1.91049882E+01  0.00000000E+00  9.55249411E+00  9.55249411E+00 -1.91049882E+01
  0.00000000E+00  9.55249411E+00  9.55249411E+00 -1.91049882E+01  0.00000000E+00
  9.55249411E+00  9.55249411E+00 -1.91049882E+01  0.00000000E+00  9.55249411E+00
  9.55249411E+00 -1.91049882E+01  0.00000000E+00  9.55249411E+00  9.55249411E+00
 -1.91049882E+01  0.00000000E+00  9.55249411E+00  9.55249411E+00 -1.91049882E+01
  0.00000000E+00  9.55249411E+00  9.55249411E+00 -1.91049882E+01  0.00000000E+00
  9.55249411E+00  9.55249411E+00 -1.91049882E+01  0.00000000E+00  9.55249411E+00
  9.55249411E+00 -1.91049882E+01  0.00000000E+00  9.55249411E+00  9.55249411E+00
 -1.91049882E+01  0.00000000E+00  9.55249411E+00  9.55249411E+00 -1.91049882E+01
  0.00000000E+00  9.55249411E+00  9.55249411E+00 -1.91049882E+01  0.00000000E+00
  9.55249411E+00  9.55249411E+00 -1.91049882E+01  0.00000000E+00  9.55249411E+00
  9.55249411E+00 -1.91049882E+01  0.00000000E+00  9.55249411E+00  9.55249411E+00
 -1.91049882E+01  0.00000000E+00  9.55249411E+00  9.55249411E+00 -1.91049882E+01
  0.00000000E+00  9.55249411E+00  9.55249411E+00 -1.91049882E+01  0.00000000E+00
  9.55249411E+00  9.55249411E+00 -1.91049882E+01  0.00000000E+00  9.55249411E+00
  9.55249411E+00 -1.91049882E+01  0.00000000E+00  9.55249411E+00  9.55249411E+00
 -1.91049882E+01  0.00000000E+00  9.55249411E+00  9.55249411E+00 -1.91049882E+01
  0.00000000E+00  9.55249411E+00  9.55249411E+00 -1.91049882E+01  0.00000000E+00
  9.55249411E+00  9.55249411E+00 -1.91049882E+01  0.00000000E+00  9.55249411E+00
  9.55249411E+00 -1.91049882E+01  0.00000000E+00  9.55249411E+00  9.55249411E+00
 -1.91049882E+01  0.00000000E+00  9.55249411E+00  9.55249411E+00 -1.91049882E+01
  0.00000000E+00  9.55249411E+00  9.55249411E+00 -1.91049882E+01  0.00000000E+00
  9.55249411E+00  9.55249411E+00 -1.91049882E+01  0.00000000E+00  9.55249411E+00
  9.55249411E+00 -1.91049882E+01  0.00000000E+00  9.55249411E+00  9.55249411E+00
 -1.91049882E+01  0.00000000E+00  9.55249411E+00  9.55249411E+00 -1.91049882E+01
  0.00000000E+00  9.55249411E+00  9.55249411E+00 -1.91049882E+01  0.00000000E+00
  9.55249411E+00  9.55249411E+00 -1.91049882E+01  0.00000000E+00  9.55249411E+00
  9.55249411E+00 -1.91049882E+01  0.00000000E+00  9.55249411E+00  9.55249411E+00
 -1.91049882E+01  0.00000000E+00  9.55249411E+00  9.55249411E+00 -1.91049882E+01
  0.00000000E+00  9.55249411E+00  9.55249411E+00 -1.91049882E+01  0.00000000E+00
  9.55249411E+00  9.55249411E+00 -1.91049882E+01  0.00000000E+00  9.55249411E+00
  9.55249411E+00 -1.91049882E+01  0.00000000E+00  9.55249411E+00  9.55249411E+00
 -1.91049882E+01  0.00000000E+00  9.55249411E+00  9.55249411E+00 -1.91049882E+01
  0.00000000E+00  9.55249411E+00  9.55249411E+00 -1.91049882E+01  0.00000000E+00
  9.55249411E+00  9.55249411E+00 -1.91049882E+01  0.00000000E+00  9.55249411E+00
  9.55249411E+00 -1.91049882E+01  0.00000000E+00  9.55249411E+00  9.55249411E+00
 -1.91049882E+01  0.00000000E+00  9.55249411E+00  9.55249411E+00 -1.91049882E+01
  0.00000000E+00  9.55249411E+00  9.55249411E+00 -1.91049882E+01  0.00000000E+00
  9.55249411E+00  9.55249411E+00 -1.91049882E+01  0.00000000E+00  9.55249411E+00
  9.55249411E+00 -1.91049882E+01  0.00000000E+00  9.55249411E+00  9.55249411E+00
 -1.91049882E+01  0.00000000E+00  9.55249411E+00  9.55249411E+00 -1.91049882E+01
  0.00000000E+00  9.55249411E+00  9.55249411E+00 -1.91049882E+01  0.00000000E+00
  9.55249411E+00  9.55249411E+00 -1.91049882E+01  0.00000000E+00  9.55249411E+00
  9.55249411E+00 -1.91049882E+01  0.00000000E+00  9.55249411E+00  9.55249411E+00
 -1.91049882E+01  0.00000000E+00  9.55249411E+00  9.55249411E+00 -1.91049882E+01
  0.00000000E+00  9.55249411E+00  9.55249411E+00 -1.91049882E+01  0.00000000E+00
  9.55249411E+00  9.55249411E+00 -1.91049882E+01  0.00000000E+00  9.55249411E+00
  9.55249411E+00 -1.91049882E+01  0.00000000E+00  9.55249411E+00  9.55249411E+00
 -1.91049882E+01  0.00000000E+00  9.55249411E+00  9.55249411E+00 -1.91049882E+01
  0.00000000E+00  9.55249411E+00  9.55249411E+00 -1.91049882E+01  0.00000000E+00
  9.55249411E+00  9.55249411E+00 -1.91049882E+01  0.00000000E+00  9.55249411E+00
  9.55249411E+00 -1.91049882E+01  0.00000000E+00  9.55249411E+00  9.55249411E+00
 -1.91049882E+01  0.00000000E+00  9.55249411E+00  9.55249411E+00 -1.91049882E+01
  0.00000000E+00  9.55249411E+00  9.55249411E+00 -1.91049882E+01  0.00000000E+00
  9.55249411E+00  9.55249411E+00 -1.91049882E+01  0.00000000E+00  9.55249411E+00
  9.55249411E+00 -1.91049882E+01  0.00000000E+00  9.55249411E+00  9.55249411E+00
 -1.91049882E+01  0.00000000E+00  9.55249411E+00  9.55249411E+00 -1.91049882E+01
  0.00000000E+00  9.55249411E+00  9.55249411E+00 -1.91049882E+01  0.00000000E+00
  9.55249411E+00  9.55249411E+00 -1.91049882E+01  0.00000000E+00  9.55249411E+00
  9.55249411E+00 -1.91049882E+01  0.00000000E+00  9.55249411E+00  9.55249411E+00
 -1.91049882E+01  0.00000000E+00  9.55249411E+00  9.55249411E+00 -1.91049882E+01
  0.00000000E+00  9.55249411E+00  9.55249411E+00 -1.91049882E+01  0.00000000E+00
  9.55249411E+00  9.55249411E+00 -1.91049882E+01  0.00000000E+00  9.55249411E+00
  9.55249411E+00 -1.91049882E+01  0.00000000E+00  9.55249411E+00  9.55249411E+00
 -1.91049882E+01  0.00000000E+00  9.55249411E+00  9.55249411E+00 -1.91049882E+01
  0.00000000E+00  9.55249411E+00  9.55249411E+00 -1.91049882E+01  0.00000000E+00
  9.55249411E+00  9.55249411E+00 -1.91049882E+01  0.00000000E+00  9.55249411E+00
  9.55249411E+00 -1.91049882E+01  0.00000000E+00  9.55249411E+00  9.55249411E+00
 -1.91049882E+01  0.00000000E+00  9.55249411E+00  9.55249411E+00 -1.91049882E+01
  0.00000000E+00  9.55249411E+00  9.55249411E+00 -1.91049882E+01  0.00000000E+00
  9.55249411E+00  9.55249411E+00 -1.91049882E+01  0.00000000E+00  9.55249411E+00
  9.55249411E+00 -1.91049882E+01  0.00000000E+00  9.55249411E+00  9.55249411E+00
 -1.91049882E+01  0.00000000E+00  9.55249411E+00  9.55249411E+00 -1.91049882E+01
  0.00000000E+00  9.55249411E+00  9.55249411E+00 -1.91049882E+01  0.00000000E+00
  9.55249411E+00  9.55249411E+00 -1.91049882E+01  0.00000000E+00  9.55249411E+00
  9.55249411E+00 -1.91049882E+01  0.00000000E+00  9.55249411E+00  9.55249411E+00
 -1.91049882E+01  0.00000000E+00  9.55249411E+00  9.55249411E+00 -1.91049882E+01
  0.00000000E+00  9.55249411E+00  9.55249411E+00 -1.91049882E+01  0.00000000E+00
  9.55249411E+00  9.55249411E+00 -1.91049882E+01  0.00000000E+00  9.55249411E+00
  9.55249411E+00 -1.91049882E+01  0.00000000E+00  9.55249411E+00  9.55249411E+00
 -1.91049882E+01  0.00000000E+00  9.55249411E+00  9.55249411E+00 -1.91049882E+01
  0.00000000E+00  9.55249411E+00  9.55249411E+00 -1.91049882E+01  0.00000000E+00
  9.55249411E+00  9.55249411E+00 -1.91049882E+01  0.00000000E+00  9.55249411E+00
  9.55249411E+00 -1.91049882E+01  0.00000000E+00  9.55249411E+00  9.55249411E+00
 -1.91049882E+01  0.00000000E+00  9.55249411E+00  9.55249411E+00 -1.91049882E+01
  0.00000000E+00  9.55249411E+00  9.55249411E+00 -1.91049882E+01  0.00000000E+00
  9.55249411E+00  9.55249411E+00 -1.91049882E+01  0.00000000E+00  9.55249411E+00
  9.55249411E+00 -1.91049882E+01  0.00000000E+00  9.55249411E+00  9.55249411E+00
 -1.91049882E+01  0.00000000E+00  9.55249411E+00  9.55249411E+00 -1.91049882E+01
  0.00000000E+00  9.55249411E+00  9.55249411E+00 -1.91049882E+01  0.00000000E+00
  9.55249411E+00  9.55249411E+00 -1.91049882E+01  0.00000000E+00  9.55249411E+00
  9.55249411E+00 -1.91049882E+01  0.00000000E+00  9.55249411E+00  9.55249411E+00
 -1.91049882E+01  0.00000000E+00  9.55249411E+00  9.55249411E+00 -1.91049882E+01
  0.00000000E+00  9.55249411E+00  9.55249411E+00 -1.91049882E+01  0.00000000E+00
  9.55249411E+00  9.55249411E+00 -1.91049882E+01  0.00000000E+00  9.55249411E+00
  9.55249411E+00 -1.91049882E+01  0.00000000E+00  9.55249411E+00  9.55249411E+00
 -1.91049882E+01  0.00000000E+00  9.55249411E+00  9.55249411E+00 -1.91049882E+01
  0.00000000E+00  9.55249411E+00  9.55249411E+00 -1.91049882E+01  0.00000000E+00
  9.55249411E+00  9.55249411E+00 -1.91049882E+01  0.00000000E+00  9.55249411E+00
  9.55249411E+00 -1.91049882E+01  0.00000000E+00  9.55249411E+00  9.55249411E+00
 -1.91049882E+01  0.00000000E+00  9.55249411E+00  9.55249411E+00 -1.91049882E+01
  0.00000000E+00  9.55249411E+00  9.55249411E+00 -1.91049882E+01  0.00000000E+00
  9.55249411E+00  9.55249411E+00 -1.91049882E+01  0.00000000E+00  9.55249411E+00
  9.55249411E+00 -1.91049882E+01  0.00000000E+00  9.55249411E+00  9.55249411E+00
 -1.91049882E+01  0.00000000E+00  9.55249411E+00  9.55249411E+00 -1.91049882E+01
  0.00000000E+00  9.55249411E+00  9.55249411E+00 -1.91049882E+01  0.00000000E+00
  9.55249411E+00  9.55249411E+00 -1.91049882E+01  0.00000000E+00  9.55249411E+00
  9.55249411E+00 -1.91049882E+01  0.00000000E+00  9.55249411E+00  9.55249411E+00
 -1.91049882E+01  0.00000000E+00  9.55249411E+00  9.55249411E+00 -1.91049882E+01
  0.00000000E+00  9.55249411E+00  9.55249411E+00 -1.91049882E+01  0.00000000E+00
  9.55249411E+00  9.55249411E+00 -1.91049882E+01  0.00000000E+00  9.55249411E+00
  9.55249411E+00 -1.91049882E+01  0.00000000E+00  9.55249411E+00  9.55249411E+00
 -1.91049882E+01  0.00000000E+00  9.55249411E+00  9.55249411E+00 -1.91049882E+01
  0.00000000E+00  9.55249411E+00  9.55249411E+00 -1.91049882E+01  0.00000000E+00
  9.55249411E+00  9.55249411E+00 -1.91049882E+01  0.00000000E+00  9.55249411E+00
  9.55249411E+00 -1.91049882E+01  0.00000000E+00  9.55249411E+00  9.55249411E+00
 -1.91049882E+01  0.00000000E+00  9.55249411E+00  9.55249411E+00 -1.91049882E+01
  0.00000000E+00  9.55249411E+00  9.55249411E+00 -1.91049882E+01  0.00000000E+00
  9.55249411E+00  9.55249411E+00 -1.91049882E+01  0.00000000E+00  9.55249411E+00
  9.55249411E+00 -1.91049882E+01  0.00000000E+00  9.55249411E+00  9.55249411E+00
 -1.91049882E+01  0.00000000E+00  9.55249411E+00  9.55249411E+00 -1.91049882E+01
  0.00000000E+00  9.55249411E+00  9.55249411E+00 -1.91049882E+01  0.00000000E+00
  9.55249411E+00  9.55249411E+00 -1.91049882E+01  0.00000000E+00  9.55249411E+00
  9.55249411E+00 -1.91049882E+01  0.00000000E+00  9.55249411E+00  9.55249411E+00
 -1.91049882E+01  0.00000000E+00  9.55249411E+00  9.55249411E+00 -1.91049882E+01
  0.00000000E+00  9.55249411E+00  9.55249411E+00 -1.91049882E+01  0.00000000E+00
  9.55249411E+00  9.55249411E+00 -1.91049882E+01  0.00000000E+00  9.55249411E+00
  9.55249411E+00 -1.91049882E+01  0.00000000E+00  9.55249411E+00  9.55249411E+00
 -1.91049882E+01  0.00000000E+00  9.55249411E+00  9.55249411E+00 -1.91049882E+01
  0.00000000E+00  9.55249411E+00  9.55249411E+00 -1.91049882E+01  0.00000000E+00
  9.55249411E+00  9.55249411E+00 -1.91049882E+01  0.00000000E+00  9.55249411E+00
  9.55249411E+00 -1.91049882E+01  0.00000000E+00  9.55249411E+00  9.55249411E+00
 -1.91049882E+01  0.00000000E+00  9.55249411E+00  9.55249411E+00 -1.91049882E+01
  0.00000000E+00  9.55249411E+00  9.55249411E+00 -1.91049882E+01  0.00000000E+00
  9.55249411E+00  9.55249411E+00 -1.91049882E+01  0.00000000E+00  9.55249411E+00
  9.55249411E+00 -1.91049882E+01  0.00000000E+00  9.55249411E+00  9.55249411E+00
 -1.91049882E+01  0.00000000E+00  9.55249411E+00  9.55249411E+00 -1.91049882E+01
  0.00000000E+00  9.55249411E+00  9.55249411E+00 -1.91049882E+01  0.00000000E+00
  9.55249411E+00  9.55249411E+00 -1.91049882E+01  0.00000000E+00  9.55249411E+00
  9.55249411E+00 -1.91049882E+01  0.00000000E+00  9.55249411E+00  9.55249411E+00
 -1.91049882E+01  0.00000000E+00  9.55249411E+00  9.55249411E+00 -1.91049882E+01
  0.00000000E+00  9.55249411E+00  9.55249411E+00 -1.91049882E+01  0.00000000E+00
  9.55249411E+00  9.55249411E+00 -1.91049882E+01  0.00000000E+00  9.55249411E+00
  9.55249411E+00 -1.91049882E+01  0.00000000E+00  9.55249411E+00  9.55249411E+00
 -1.91049882E+01  0.00000000E+00  9.55249411E+00  9.55249411E+00 -1.91049882E+01
  0.00000000E+00  9.55249411E+00  9.55249411E+00 -1.91049882E+01  0.00000000E+00
  9.55249411E+00  9.55249411E+00 -1.91049882E+01  0.00000000E+00  9.55249411E+00
  9.55249411E+00 -1.91049882E+01  0.00000000E+00  9.55249411E+00  9.55249411E+00
 -1.91049882E+01  0.00000000E+00  9.55249411E+00  9.55249411E+00 -1.91049882E+01
  0.00000000E+00  9.55249411E+00  9.55249411E+00 -1.91049882E+01  0.00000000E+00
  9.55249411E+00  9.55249411E+00 -1.91049882E+01  0.00000000E+00  9.55249411E+00
  9.55249411E+00 -1.91049882E+01  0.00000000E+00  9.55249411E+00  9.55249411E+00
 -1.91049882E+01  0.00000000E+00  9.55249411E+00  9.55249411E+00 -1.91049882E+01
  0.00000000E+00  9.55249411E+00  9.55249411E+00 -1.91049882E+01  0.00000000E+00
  9.55249411E+00  9.55249411E+00 -1.91049882E+01  0.00000000E+00  9.55249411E+00
  9.55249411E+00 -1.91049882E+01  0.00000000E+00  9.55249411E+00  9.55249411E+00
 -1.91049882E+01  0.00000000E+00  9.55249411E+00  9.55249411E+00 -1.91049882E+01
  0.00000000E+00  9.55249411E+00  9.55249411E+00 -1.91049882E+01  0.00000000E+00
  9.55249411E+00  9.55249411E+00 -1.91049882E+01  0.00000000E+00  9.55249411E+00
  9.55249411E+00 -1.91049882E+01  0.00000000E+00  9.55249411E+00  9.55249411E+00
 -1.91049882E+01  0.00000000E+00  9.55249411E+00  9.55249411E+00 -1.91049882E+01
  0.00000000E+00  9.55249411E+00  9.55249411E+00 -1.91049882E+01  0.00000000E+00
  9.55249411E+00  9.55249411E+00 -1.91049882E+01  0.00000000E+00  9.55249411E+00
  9.55249411E+00 -1.91049882E+01  0.00000000E+00  9.55249411E+00  9.55249411E+00
 -1.91049882E+01  0.00000000E+00  9.55249411E+00  9.55249411E+00 -1.91049882E+01
  0.00000000E+00  9.55249411E+00  9.55249411E+00 -1.91049882E+01  0.00000000E+00
  9.55249411E+00  9.55249411E+00 -1.91049882E+01  0.00000000E+00  9.55249411E+00
  9.55249411E+00 -1.91049882E+01  0.00000000E+00  9.55249411E+00  9.55249411E+00
 -1.91049882E+01  0.00000000E+00  9.55249411E+00  9.55249411E+00 -1.91049882E+01
  0.00000000E+00  9.55249411E+00  9.55249411E+00 -1.91049882E+01  0.00000000E+00
  9.55249411E+00  9.55249411E+00 -1.91049882E+01  0.00000000E+00  9.55249411E+00
  9.55249411E+00 -1.91049882E+01  0.00000000E+00  9.55249411E+00  9.55249411E+00
 -1.91049882E+01  0.00000000E+00  9.55249411E+00  9.55249411E+00 -1.91049882E+01
  0.00000000E+00  9.55249411E+00  9.55249411E+00 -1.91049882E+01  0.00000000E+00
  9.55249411E+00  9.55249411E+00 -1.91049882E+01  0.00000000E+00  9.55249411E+00
  9.55249411E+00 -1.91049882E+01  0.00000000E+00  9.55249411E+00  9.55249411E+00
 -1.91049882E+01  0.00000000E+00  9.55249411E+00  9.55249411E+00 -1.91049882E+01
  0.00000000E+00  9.55249411E+00  9.55249411E+00 -1.91049882E+01  0.00000000E+00
  9.55249411E+00  9.55249411E+00 -1.91049882E+01  0.00000000E+00  9.55249411E+00
  9.55249411E+00 -1.91049882E+01  0.00000000E+00  9.55249411E+00  9.55249411E+00
 -1.91049882E+01  0.00000000E+00  9.55249411E+00  9.55249411E+00 -1.91049882E+01
  0.00000000E+00  9.55249411E+00  9.55249411E+00 -1.91049882E+01  0.00000000E+00
  9.55249411E+00  9.55249411E+00 -1.91049882E+01  0.00000000E+00  9.55249411E+00
  9.55249411E+00 -1.91049882E+01  0.00000000E+00  9.55249411E+00  9.55249411E+00
 -1.91049882E+01  0.00000000E+00  9.55249411E+00  9.55249411E+00 -1.91049882E+01
  0.00000000E+00  9.55249411E+00  9.55249411E+00 -1.91049882E+01  0.00000000E+00
  9.55249411E+00  9.55249411E+00 -1.91049882E+01  0.00000000E+00  9.55249411E+00
  9.55249411E+00 -1.91049882E+01  0.00000000E+00  9.55249411E+00  9.55249411E+00
 -1.91049882E+01  0.00000000E+00  9.55249411E+00  9.55249411E+00 -1.91049882E+01
  0.00000000E+00  9.55249411E+00  9.55249411E+00 -1.91049882E+01  0.00000000E+00
  9.55249411E+00  9.55249411E+00 -1.91049882E+01  0.00000000E+00  9.55249411E+00
  9.55249411E+00 -1.91049882E+01  0.00000000E+00  9.55249411E+00  9.55249411E+00
 -1.91049882E+01  0.00000000E+00  9.55249411E+00  9.55249411E+00 -1.91049882E+01
  0.00000000E+00  9.55249411E+00  9.55249411E+00 -1.91049882E+01  0.00000000E+00
  9.55249411E+00  9.55249411E+00 -1.91049882E+01  0.00000000E+00  9.55249411E+00
  9.55249411E+00 -1.91049882E+01  0.00000000E+00  9.55249411E+00  9.55249411E+00
 -1.91049882E+01  0.00000000E+00  9.55249411E+00  9.55249411E+00 -1.91049882E+01
  0.00000000E+00  9.55249411E+00  9.55249411E+00 -1.91049882E+01  0.00000000E+00
  9.55249411E+00  9.55249411E+00 -1.91049882E+01  0.00000000E+00  9.55249411E+00
  9.55249411E+00 -1.91049882E+01  0.00000000E+00  9.55249411E+00  9.55249411E+00
 -1.91049882E+01  0.00000000E+00  9.55249411E+00  9.55249411E+00 -1.91049882E+01
  0.00000000E+00  9.55249411E+00  9.55249411E+00 -1.91049882E+01  0.00000000E+00
  9.55249411E+00  9.55249411E+00 -1.91049882E+01  0.00000000E+00  9.55249411E+00
  9.55249411E+00 -1.91049882E+01  0.00000000E+00  9.55249411E+00  9.55249411E+00
 -1.91049882E+01  0.00000000E+00  9.55249411E+00  9.55249411E+00 -1.91049882E+01
  0.00000000E+00  9.55249411E+00  9.55249411E+00 -1.91049882E+01  0.00000000E+00
  9.55249411E+00  9.55249411E+00 -1.91049882E+01  0.00000000E+00  9.55249411E+00
  9.55249411E+00 -1.91049882E+01  0.00000000E+00  9.55249411E+00  9.55249411E+00
 -1.91049882E+01  0.00000000E+00  9.55249411E+00  9.55249411E+00 -1.91049882E+01
  0.00000000E+00  9.55249411E+00  9.55249411E+00 -1.91049882E+01  0.00000000E+00
  9.55249411E+00  9.55249411E+00 -1.91049882E+01  0.00000000E+00  9.55249411E+00
  9.55249411E+00 -1.91049882E+01  0.00000000E+00  9.55249411E+00  9.55249411E+00
 -1.91049882E+01  0.00000000E+00  9.55249411E+00  9.55249411E+00 -1.91049882E+01
  0.00000000E+00  9.55249411E+00  9.55249411E+00 -1.91049882E+01  0.00000000E+00
  9.55249411E+00  9.55249411E+00 -1.91049882E+01  0.00000000E+00  9.55249411E+00
  9.55249411E+00 -1.91049882E+01  0.00000000E+00  9.55249411E+00  9.55249411E+00
 -1.91049882E+01  0.00000000E+00  9.55249411E+00  9.55249411E+00 -1.91049882E+01
  0.00000000E+00  9.55249411E+00  9.55249411E+00 -1.91049882E+01  0.00000000E+00
  9.55249411E+00  9.55249411E+00 -1.91049882E+01  0.00000000E+00  9.55249411E+00
  9.55249411E+00 -1.91049882E+01  0.00000000E+00  9.55249411E+00  9.55249411E+00
 -1.91049882E+01  0.00000000E+00  9.55249411E+00  9.55249411E+00 -1.91049882E+01
  0.00000000E+00  9.55249411E+00  9.55249411E+00 -1.91049882E+01  0.00000000E+00
  9.55249411E+00  9.55249411E+00 -1.91049882E+01  0.00000000E+00  9.55249411E+00
  9.55249411E+00 -1.91049882E+01  0.00000000E+00  9.55249411E+00  9.55249411E+00
 -1.91049882E+01  0.00000000E+00  9.55249411E+00  9.55249411E+00 -1.91049882E+01
  0.00000000E+00  9.55249411E+00  9.55249411E+00 -1.91049882E+01  0.00000000E+00
  9.55249411E+00  9.55249411E+00 -1.91049882E+01  0.00000000E+00  9.55249411E+00
  9.55249411E+00 -1.91049882E+01  0.00000000E+00  9.55249411E+00  9.55249411E+00
 -1.91049882E+01  0.00000000E+00  9.55249411E+00  9.55249411E+00 -1.91049882E+01
  0.00000000E+00  9.55249411E+00  9.55249411E+00 -1.91049882E+01  0.00000000E+00
  9.55249411E+00  9.55249411E+00 -1.91049882E+01  0.00000000E+00  9.55249411E+00
  9.55249411E+00 -1.91049882E+01  0.00000000E+00  9.55249411E+00  9.55249411E+00
 -1.91049882E+01  0.00000000E+00  9.55249411E+00  9.55249411E+00 -1.91049882E+01
  0.00000000E+00  9.55249411E+00  9.55249411E+00 -1.91049882E+01  0.00000000E+00
  9.55249411E+00  9.55249411E+00 -1.91049882E+01  0.00000000E+00  9.55249411E+00
  9.55249411E+00 -1.91049882E+01  0.00000000E+00  9.55249411E+00  9.55249411E+00
 -1.91049882E+01  0.00000000E+00  9.55249411E+00  9.55249411E+00 -1.91049882E+01
  0.00000000E+00  9.55249411E+00  9.55249411E+00 -1.91049882E+01  0.00000000E+00
  9.55249411E+00  9.55249411E+00 -1.91049882E+01  0.00000000E+00  9.55249411E+00
  9.55249411E+00 -1.91049882E+01  0.00000000E+00  9.55249411E+00  9.55249411E+00
 -1.91049882E+01  0.00000000E+00  9.55249411E+00  9.55249411E+00 -1.91049882E+01
  0.00000000E+00  9.55249411E+00  9.55249411E+00 -1.91049882E+01  0.00000000E+00
  9.55249411E+00  9.55249411E+00 -1.91049882E+01  0.00000000E+00  9.55249411E+00
  9.55249411E+00 -1.91049882E+01  0.00000000E+00  9.55249411E+00  9.55249411E+00
 -1.91049882E+01  0.00000000E+00  9.55249411E+00  9.55249411E+00 -1.91049882E+01
  0.00000000E+00  9.55249411E+00  9.55249411E+00 -1.91049882E+01  0.00000000E+00
  9.55249411E+00  9.55249411E+00 -1.91049882E+01  0.00000000E+00  9.55249411E+00
  9.55249411E+00 -1.91049882E+01  0.00000000E+00  9.55249411E+00  9.55249411E+00
 -1.91049882E+01  0.00000000E+00  9.55249411E+00  9.55249411E+00 -1.91049882E+01
  0.00000000E+00  9.55249411E+00  9.55249411E+00 -1.91049882E+01  0.00000000E+00
  9.55249411E+00  9.55249411E+00 -1.91049882E+01  0.00000000E+00  9.55249411E+00
  9.55249411E+00 -1.91049882E+01  0.00000000E+00  9.55249411E+00  9.55249411E+00
 -1.91049882E+01  0.00000000E+00  9.55249411E+00  9.55249411E+00 -1.91049882E+01
  0.00000000E+00  9.55249411E+00  9.55249411E+00 -1.91049882E+01  0.00000000E+00
  9.55249411E+00  9.55249411E+00 -1.91049882E+01  0.00000000E+00  9.55249411E+00
  9.55249411E+00 -1.91049882E+01  0.00000000E+00  9.55249411E+00  9.55249411E+00
 -1.91049882E+01  0.00000000E+00  9.55249411E+00  9.55249411E+00 -1.91049882E+01
  0.00000000E+00  9.55249411E+00  9.55249411E+00 -1.91049882E+01  0.00000000E+00
  9.55249411E+00  9.55249411E+00 -1.91049882E+01  0.00000000E+00  9.55249411E+00
  9.55249411E+00 -1.91049882E+01  0.00000000E+00  9.55249411E+00  9.55249411E+00
 -1.91049882E+01  0.00000000E+00  9.55249411E+00  9.55249411E+00 -1.91049882E+01
  0.00000000E+00  9.55249411E+00  9.55249411E+00 -1.91049882E+01  0.00000000E+00
  9.55249411E+00  9.55249411E+00 -1.91049882E+01  0.00000000E+00  9.55249411E+00
  9.55249411E+00 -1.91049882E+01  0.00000000E+00  9.55249411E+00  9.55249411E+00
 -1.91049882E+01  0.00000000E+00  9.55249411E+00  9.55249411E+00 -1.91049882E+01
  0.00000000E+00  9.55249411E+00  9.55249411E+00 -1.91049882E+01  0.00000000E+00
  9.55249411E+00  9.55249411E+00 -1.91049882E+01  0.00000000E+00  9.55249411E+00
  9.55249411E+00 -1.91049882E+01  0.00000000E+00  9.55249411E+00  9.55249411E+00
 -1.91049882E+01  0.00000000E+00  9.55249411E+00  9.55249411E+00 -1.91049882E+01
  0.00000000E+00  9.55249411E+00  9.55249411E+00 -1.91049882E+01  0.00000000E+00
  9.55249411E+00  9.55249411E+00 -1.91049882E+01  0.00000000E+00  9.55249411E+00
  9.55249411E+00 -1.91049882E+01  0.00000000E+00  9.55249411E+00  9.55249411E+00
 -1.91049882E+01  0.00000000E+00  9.55249411E+00  9.55249411E+00 -1.91049882E+01
  0.00000000E+00  9.55249411E+00  9.55249411E+00 -1.91049882E+01  0.00000000E+00
  9.55249411E+00  9.55249411E+00 -1.91049882E+01  0.00000000E+00  9.55249411E+00
  9.55249411E+00 -1.91049882E+01  0.00000000E+00  9.55249411E+00  9.55249411E+00
 -1.91049882E+01  0.00000000E+00  9.55249411E+00  9.55249411E+00 -1.91049882E+01
  0.00000000E+00  9.55249411E+00  9.55249411E+00 -1.91049882E+01  0.00000000E+00
  9.55249411E+00  9.55249411E+00 -1.91049882E+01  0.00000000E+00  9.55249411E+00
  9.55249411E+00 -1.91049882E+01  0.00000000E+00  9.55249411E+00  9.55249411E+00
 -1.91049882E+01  0.00000000E+00  9.55249411E+00  9.55249411E+00 -1.91049882E+01
  0.00000000E+00  9.55249411E+00  9.55249411E+00 -1.91049882E+01  0.00000000E+00
  9.55249411E+00  9.55249411E+00 -1.91049882E+01  0.00000000E+00  9.55249411E+00
  9.55249411E+00 -1.91049882E+01  0.00000000E+00  9.55249411E+00  9.55249411E+00
 -1.91049882E+01  0.00000000E+00  9.55249411E+00  9.55249411E+00 -1.91049882E+01
  0.00000000E+00  9.55249411E+00  9.55249411E+00 -1.91049882E+01  0.00000000E+00
  9.55249411E+00  9.55249411E+00 -1.91049882E+01  0.00000000E+00  9.55249411E+00
  9.55249411E+00 -1.91049882E+01  0.00000000E+00  9.55249411E+00  9.55249411E+00
 -1.91049882E+01  0.00000000E+00  9.55249411E+00  9.55249411E+00 -1.91049882E+01
  0.00000000E+00  9.55249411E+00  9.55249411E+00 -1.91049882E+01  0.00000000E+00
  9.55249411E+00  9.55249411E+00 -1.91049882E+01  0.00000000E+00  9.55249411E+00
  9.55249411E+00 -1.91049882E+01  0.00000000E+00  9.55249411E+00  9.55249411E+00
 -1.91049882E+01  0.00000000E+00  9.55249411E+00  9.55249411E+00 -1.91049882E+01
  0.00000000E+00  9.55249411E+00  9.55249411E+00 -1.91049882E+01  0.00000000E+00
  9.55249411E+00  9.55249411E+00 -1.91049882E+01  0.00000000E+00  9.55249411E+00
  9.55249411E+00 -1.91049882E+01  0.00000000E+00  9.55249411E+00  9.55249411E+00
 -1.91049882E+01  0.00000000E+00  9.55249411E+00  9.55249411E+00 -1.91049882E+01
  0.00000000E+00  9.55249411E+00  9.55249411E+00 -1.91049882E+01  0.00000000E+00
  9.55249411E+00  9.55249411E+00 -1.91049882E+01  0.00000000E+00  9.55249411E+00
  9.55249411E+00 -1.91049882E+01  0.00000000E+00  9.55249411E+00  9.55249411E+00
 -1.91049882E+01  0.00000000E+00  9.55249411E+00  9.55249411E+00 -1.91049882E+01
  0.00000000E+00  9.55249411E+00  9.55249411E+00 -1.91049882E+01  0.00000000E+00
  9.55249411E+00  9.55249411E+00 -1.91049882E+01  0.00000000E+00  9.55249411E+00
  9.55249411E+00 -1.91049882E+01  0.00000000E+00  9.55249411E+00  9.55249411E+00
 -1.91049882E+01  0.00000000E+00  9.55249411E+00  9.55249411E+00 -1.91049882E+01
  0.00000000E+00  9.55249411E+00  9.55249411E+00 -1.91049882E+01  0.00000000E+00
  9.55249411E+00  9.55249411E+00 -1.91049882E+01  0.00000000E+00  9.55249411E+00
  9.55249411E+00 -1.91049882E+01  0.00000000E+00  9.55249411E+00  9.55249411E+00
 -1.91049882E+01  0.00000000E+00  9.55249411E+00  9.55249411E+00 -1.91049882E+01
  0.00000000E+00  9.55249411E+00  9.55249411E+00 -1.91049882E+01  0.00000000E+00
  9.55249411E+00  9.55249411E+00 -1.91049882E+01  0.00000000E+00  9.55249411E+00
  9.55249411E+00 -1.91049882E+01  0.00000000E+00  9.55249411E+00  9.55249411E+00
 -1.91049882E+01  0.00000000E+00  9.55249411E+00  9.55249411E+00 -1.91049882E+01
  0.00000000E+00  9.55249411E+00  9.55249411E+00 -1.91049882E+01  0.00000000E+00
  9.55249411E+00  9.55249411E+00 -1.91049882E+01  0.00000000E+00  9.55249411E+00
  9.55249411E+00 -1.91049882E+01  0.00000000E+00  9.55249411E+00  9.55249411E+00
 -1.91049882E+01  0.00000000E+00  9.55249411E+00  9.55249411E+00 -1.91049882E+01
  0.00000000E+00  9.55249411E+00  9.55249411E+00 -1.91049882E+01  0.00000000E+00
  9.55249411E+00  9.55249411E+00 -1.91049882E+01  0.00000000E+00  9.55249411E+00
  9.55249411E+00 -1.91049882E+01  0.00000000E+00  9.55249411E+00  9.55249411E+00
 -1.91049882E+01  0.00000000E+00  9.55249411E+00  9.55249411E+00 -1.91049882E+01
  0.00000000E+00  9.55249411E+00  9.55249411E+00 -1.91049882E+01  0.00000000E+00
  9.55249411E+00  9.55249411E+00 -1.91049882E+01  0.00000000E+00  9.55249411E+00
  9.55249411E+00 -1.91049882E+01  0.00000000E+00  9.55249411E+00  9.55249411E+00
 -1.91049882E+01  0.00000000E+00  9.55249411E+00  9.55249411E+00 -1.91049882E+01
  0.00000000E+00  9.55249411E+00  9.55249411E+00 -1.91049882E+01  0.00000000E+00
  9.55249411E+00  9.55249411E+00 -1.91049882E+01  0.00000000E+00  9.55249411E+00
  9.55249411E+00 -1.91049882E+01  0.00000000E+00  9.55249411E+00  9.55249411E+00
 -1.91049882E+01  0.00000000E+00  9.55249411E+00  9.55249411E+00 -1.91049882E+01
  0.00000000E+00  9.55249411E+00  9.55249411E+00 -1.91049882E+01  0.00000000E+00
  9.55249411E+00  9.55249411E+00 -1.91049882E+01  0.00000000E+00  9.55249411E+00
  9.55249411E+00 -1.91049882E+01  0.00000000E+00  9.55249411E+00  9.55249411E+00
 -1.91049882E+01  0.00000000E+00  9.55249411E+00  9.55249411E+00 -1.91049882E+01
  0.00000000E+00  9.55249411E+00  9.55249411E+00 -1.91049882E+01  0.00000000E+00
  9.55249411E+00  9.55249411E+00 -1.91049882E+01  0.00000000E+00  9.55249411E+00
  9.55249411E+00 -1.91049882E+01  0.00000000E+00  9.55249411E+00  9.55249411E+00
 -1.91049882E+01  0.00000000E+00  9.55249411E+00  9.55249411E+00 -1.91049882E+01
  0.00000000E+00  9.55249411E+00  9.55249411E+00 -1.91049882E+01  0.00000000E+00
  9.55249411E+00  9.55249411E+00 -1.91049882E+01  0.00000000E+00  9.55249411E+00
  9.55249411E+00 -1.91049882E+01  0.00000000E+00  9.55249411E+00  9.55249411E+00
 -1.91049882E+01  0.00000000E+00  9.55249411E+00  9.55249411E+00 -1.91049882E+01
  0.00000000E+00  9.55249411E+00  9.55249411E+00 -1.91049882E+01  0.00000000E+00
  9.55249411E+00  9.55249411E+00 -1.91049882E+01  0.00000000E+00  9.55249411E+00
  9.55249411E+00 -1.91049882E+01  0.00000000E+00  9.55249411E+00  9.55249411E+00
 -1.91049882E+01  0.00000000E+00  9.55249411E+00  9.55249411E+00 -1.91049882E+01
  0.00000000E+00  9.55249411E+00  9.55249411E+00 -1.91049882E+01  0.00000000E+00
  9.55249411E+00  9.55249411E+00 -1.91049882E+01  0.00000000E+00  9.55249411E+00
  9.55249411E+00 -1.91049882E+01  0.00000000E+00  9.55249411E+00  9.55249411E+00
 -1.91049882E+01  0.00000000E+00  9.55249411E+00  9.55249411E+00 -1.91049882E+01
  0.00000000E+00  9.55249411E+00  9.55249411E+00 -1.91049882E+01  0.00000000E+00
  9.55249411E+00  9.55249411E+00 -1.91049882E+01  0.00000000E+00  9.55249411E+00
  9.55249411E+00 -1.91049882E+01  0.00000000E+00  9.55249411E+00  9.55249411E+00
 -1.91049882E+01  0.00000000E+00  9.55249411E+00  9.55249411E+00 -1.91049882E+01
  0.00000000E+00  9.55249411E+00  9.55249411E+00 -1.91049882E+01  0.00000000E+00
  9.55249411E+00  9.55249411E+00 -1.91049882E+01  0.00000000E+00  9.55249411E+00
  9.55249411E+00 -1.91049882E+01  0.00000000E+00  9.55249411E+00  9.55249411E+00
 -1.91049882E+01  0.00000000E+00  9.55249411E+00  9.55249411E+00 -1.91049882E+01
  0.00000000E+00  9.55249411E+00  9.55249411E+00 -1.91049882E+01  0.00000000E+00
  9.55249411E+00  9.55249411E+00 -1.91049882E+01  0.00000000E+00  9.55249411E+00
  9.55249411E+00 -1.91049882E+01  0.00000000E+00  9.55249411E+00  9.55249411E+00
 -1.91049882E+01  0.00000000E+00  9.55249411E+00  9.55249411E+00 -1.91049882E+01
  0.00000000E+00  9.55249411E+00  9.55249411E+00 -1.91049882E+01  0.00000000E+00
  9.55249411E+00  9.55249411E+00 -1.91049882E+01  0.00000000E+00  9.55249411E+00
  9.55249411E+00 -1.91049882E+01  0.00000000E+00  9.55249411E+00  9.55249411E+00
 -1.91049882E+01  0.00000000E+00  9.55249411E+00  9.55249411E+00 -1.91049882E+01
  0.00000000E+00  9.55249411E+00  9.55249411E+00 -1.91049882E+01  0.00000000E+00
  9.55249411E+00  9.55249411E+00 -1.91049882E+01  0.00000000E+00  9.55249411E+00
  9.55249411E+00 -1.91049882E+01  0.00000000E+00  9.55249411E+00  9.55249411E+00
 -1.91049882E+01  0.00000000E+00  9.55249411E+00  9.55249411E+00 -1.91049882E+01
  0.00000000E+00  9.55249411E+00  9.55249411E+00 -1.91049882E+01  0.00000000E+00
  9.55249411E+00  9.55249411E+00 -1.91049882E+01  0.00000000E+00  9.55249411E+00
  9.55249411E+00 -1.91049882E+01  0.00000000E+00  9.55249411E+00  9.55249411E+00
 -1.91049882E+01  0.00000000E+00  9.55249411E+00  9.55249411E+00 -1.91049882E+01
  0.00000000E+00  9.55249411E+00  9.55249411E+00 -1.91049882E+01  0.00000000E+00
  9.55249411E+00  9.55249411E+00 -1.91049882E+01  0.00000000E+00  9.55249411E+00
  9.55249411E+00 -1.91049882E+01  0.00000000E+00  9.55249411E+00  9.55249411E+00
 -1.91049882E+01  0.00000000E+00  9.55249411E+00  9.55249411E+00 -1.91049882E+01
  0.00000000E+00  9.55249411E+00  9.55249411E+00 -1.91049882E+01  0.00000000E+00
  9.55249411E+00  9.55249411E+00 -1.91049882E+01  0.00000000E+00  9.55249411E+00
  9.55249411E+00 -1.91049882E+01  0.00000000E+00  9.55249411E+00  9.55249411E+00
 -1.91049882E+01  0.00000000E+00  9.55249411E+00  9.55249411E+00 -1.91049882E+01
  0.00000000E+00  9.55249411E+00  9.55249411E+00 -1.91049882E+01  0.00000000E+00
  9.55249411E+00  9.55249411E+00 -1.91049882E+01  0.00000000E+00  9.55249411E+00
  9.55249411E+00 -1.91049882E+01  0.00000000E+00  9.55249411E+00  9.55249411E+00
 -1.91049882E+01  0.00000000E+00  9.55249411E+00  9.55249411E+00 -1.91049882E+01
  0.00000000E+00  9.55249411E+00  9.55249411E+00 -1.91049882E+01  0.00000000E+00
  9.55249411E+00  9.55249411E+00 -1.91049882E+01  0.00000000E+00  9.55249411E+00
  9.55249411E+00 -1.91049882E+01  0.00000000E+00  9.55249411E+00  9.55249411E+00
 -1.91049882E+01  0.00000000E+00  9.55249411E+00  9.55249411E+00 -1.91049882E+01
  0.00000000E+00  9.55249411E+00  9.55249411E+00 -1.91049882E+01  0.00000000E+00
  9.55249411E+00  9.55249411E+00 -1.91049882E+01  0.00000000E+00  9.55249411E+00
  9.55249411E+00 -1.91049882E+01  0.00000000E+00  9.55249411E+00  9.55249411E+00
 -1.91049882E+01  0.00000000E+00  9.55249411E+00  9.55249411E+00 -1.91049882E+01
  0.00000000E+00  9.55249411E+00  9.55249411E+00 -1.91049882E+01  0.00000000E+00
  9.55249411E+00  9.55249411E+00 -1.91049882E+01  0.00000000E+00  9.55249411E+00
  9.55249411E+00 -1.91049882E+01  0.00000000E+00  9.55249411E+00  9.55249411E+00
 -1.91049882E+01  0.00000000E+00  9.55249411E+00  9.55249411E+00 -1.91049882E+01
  0.00000000E+00  9.55249411E+00  9.55249411E+00 -1.91049882E+01  0.00000000E+00
  9.55249411E+00  9.55249411E+00 -1.91049882E+01  0.00000000E+00  9.55249411E+00
  9.55249411E+00 -1.91049882E+01  0.00000000E+00  9.55249411E+00  9.55249411E+00
 -1.91049882E+01  0.00000000E+00  9.55249411E+00  9.55249411E+00 -1.91049882E+01
  0.00000000E+00  9.55249411E+00  9.55249411E+00 -1.91049882E+01  0.00000000E+00
  9.55249411E+00  9.55249411E+00 -1.91049882E+01  0.00000000E+00  9.55249411E+00
  9.55249411E+00 -1.91049882E+01  0.00000000E+00  9.55249411E+00  9.55249411E+00
 -1.91049882E+01  0.00000000E+00  9.55249411E+00  9.55249411E+00 -1.91049882E+01
  0.00000000E+00  9.55249411E+00  9.55249411E+00 -1.91049882E+01  0.00000000E+00
  9.55249411E+00  9.55249411E+00 -1.91049882E+01  0.00000000E+00  9.55249411E+00
  9.55249411E+00 -1.91049882E+01  0.00000000E+00  9.55249411E+00  9.55249411E+00
 -1.91049882E+01  0.00000000E+00  9.55249411E+00  9.55249411E+00 -1.91049882E+01
  0.00000000E+00  9.55249411E+00  9.55249411E+00 -1.91049882E+01  0.00000000E+00
  9.55249411E+00  9.55249411E+00 -1.91049882E+01  0.00000000E+00  9.55249411E+00
  9.55249411E+00 -1.91049882E+01  0.00000000E+00  9.55249411E+00  9.55249411E+00
 -1.91049882E+01  0.00000000E+00  9.55249411E+00  9.55249411E+00 -1.91049882E+01
  0.00000000E+00  9.55249411E+00  9.55249411E+00 -1.91049882E+01  0.00000000E+00
  9.55249411E+00  9.55249411E+00 -1.91049882E+01  0.00000000E+00  9.55249411E+00
  9.55249411E+00 -1.91049882E+01  0.00000000E+00  9.55249411E+00  9.55249411E+00
 -1.91049882E+01  0.00000000E+00  9.55249411E+00  9.55249411E+00 -1.91049882E+01
  0.00000000E+00  9.55249411E+00  9.55249411E+00 -1.91049882E+01  0.00000000E+00
  9.55249411E+00  9.55249411E+00 -1.91049882E+01  0.00000000E+00  9.55249411E+00
  9.55249411E+00 -1.91049882E+01  0.00000000E+00  9.55249411E+00  9.55249411E+00
 -1.91049882E+01  0.00000000E+00  9.55249411E+00  9.55249411E+00 -1.91049882E+01
  0.00000000E+00  9.55249411E+00  9.55249411E+00 -1.91049882E+01  0.00000000E+00
  9.55249411E+00  9.55249411E+00 -1.91049882E+01  0.00000000E+00  9.55249411E+00
  9.55249411E+00 -1.91049882E+01  0.00000000E+00  9.55249411E+00  9.55249411E+00
 -1.91049882E+01  0.00000000E+00  9.55249411E+00  9.55249411E+00 -1.91049882E+01
  0.00000000E+00  9.55249411E+00  9.55249411E+00 -1.91049882E+01  0.00000000E+00
  9.55249411E+00  9.55249411E+00 -1.91049882E+01  0.00000000E+00  9.55249411E+00
  9.55249411E+00 -1.91049882E+01  0.00000000E+00  9.55249411E+00  9.55249411E+00
 -1.91049882E+01  0.00000000E+00  9.55249411E+00  9.55249411E+00 -1.91049882E+01
  0.00000000E+00  9.55249411E+00  9.55249411E+00 -1.91049882E+01  0.00000000E+00
  9.55249411E+00  9.55249411E+00 -1.91049882E+01  0.00000000E+00  9.55249411E+00
  9.55249411E+00 -1.91049882E+01  0.00000000E+00  9.55249411E+00  9.55249411E+00
 -1.91049882E+01  0.00000000E+00  9.55249411E+00  9.55249411E+00 -1.91049882E+01
  0.00000000E+00  9.55249411E+00  9.55249411E+00 -1.91049882E+01  0.00000000E+00
  9.55249411E+00  9.55249411E+00 -1.91049882E+01  0.00000000E+00  9.55249411E+00
  9.55249411E+00 -1.91049882E+01  0.00000000E+00  9.55249411E+00  9.55249411E+00
 -1.91049882E+01  0.00000000E+00  9.55249411E+00  9.55249411E+00 -1.91049882E+01
  0.00000000E+00  9.55249411E+00  9.55249411E+00 -1.91049882E+01  0.00000000E+00
  9.55249411E+00  9.55249411E+00 -1.91049882E+01  0.00000000E+00  9.55249411E+00
  9.55249411E+00 -1.91049882E+01  0.00000000E+00  9.55249411E+00  9.55249411E+00
 -1.91049882E+01  0.00000000E+00  9.55249411E+00  9.55249411E+00 -1.91049882E+01
  0.00000000E+00  9.55249411E+00  9.55249411E+00 -1.91049882E+01  0.00000000E+00
  9.55249411E+00  9.55249411E+00 -1.91049882E+01  0.00000000E+00  9.55249411E+00
  9.55249411E+00 -1.91049882E+01  0.00000000E+00  9.55249411E+00  9.55249411E+00
 -1.91049882E+01  0.00000000E+00  9.55249411E+00  9.55249411E+00 -1.91049882E+01
  0.00000000E+00  9.55249411E+00  9.55249411E+00 -1.91049882E+01  0.00000000E+00
  9.55249411E+00  9.55249411E+00 -1.91049882E+01  0.00000000E+00  9.55249411E+00
  9.55249411E+00 -1.91049882E+01  0.00000000E+00  9.55249411E+00  9.55249411E+00
 -1.91049882E+01  0.00000000E+00  9.55249411E+00  9.55249411E+00 -1.91049882E+01
  0.00000000E+00  9.55249411E+00  9.55249411E+00 -1.91049882E+01  0.00000000E+00
  9.55249411E+00  9.55249411E+00 -1.91049882E+01  0.00000000E+00  9.55249411E+00
  9.55249411E+00 -1.91049882E+01  0.00000000E+00  9.55249411E+00  9.55249411E+00
 -1.91049882E+01  0.00000000E+00  9.55249411E+00  9.55249411E+00 -1.91049882E+01
  0.00000000E+00  9.55249411E+00  9.55249411E+00 -1.91049882E+01  0.00000000E+00
  9.55249411E+00  9.55249411E+00 -1.91049882E+01  0.00000000E+00  9.55249411E+00
  9.55249411E+00 -1.91049882E+01  0.00000000E+00  9.55249411E+00  9.55249411E+00
 -1.91049882E+01  0.00000000E+00  9.55249411E+00  9.55249411E+00 -1.91049882E+01
  0.00000000E+00  9.55249411E+00  9.55249411E+00 -1.91049882E+01  0.00000000E+00
  9.55249411E+00  9.55249411E+00 -1.91049882E+01  0.00000000E+00  9.55249411E+00
  9.55249411E+00 -1.91049882E+01  0.00000000E+00  9.55249411E+00  9.55249411E+00
 -1.91049882E+01  0.00000000E+00  9.55249411E+00  9.55249411E+00 -1.91049882E+01
  0.00000000E+00  9.55249411E+00  9.55249411E+00 -1.91049882E+01  0.00000000E+00
  9.55249411E+00  9.55249411E+00 -1.91049882E+01  0.00000000E+00  9.55249411E+00
  9.55249411E+00 -1.91049882E+01  0.00000000E+00  9.55249411E+00  9.55249411E+00
 -1.91049882E+01  0.00000000E+00  9.55249411E+00  9.55249411E+00 -1.91049882E+01
  0.00000000E+00  9.55249411E+00  9.55249411E+00 -1.91049882E+01  0.00000000E+00
  9.55249411E+00  9.55249411E+00 -1.91049882E+01  0.00000000E+00  9.55249411E+00
  9.55249411E+00 -1.91049882E+01  0.00000000E+00  9.55249411E+00  9.55249411E+00
 -1.91049882E+01  0.00000000E+00  9.55249411E+00  9.55249411E+00 -1.91049882E+01
  0.00000000E+00  9.55249411E+00  9.55249411E+00 -1.91049882E+01  0.00000000E+00
  9.55249411E+00  9.55249411E+00 -1.91049882E+01  0.00000000E+00  9.55249411E+00
  9.55249411E+00 -1.91049882E+01  0.00000000E+00  9.55249411E+00  9.55249411E+00
 -1.91049882E+01  0.00000000E+00  9.55249411E+00  9.55249411E+00 -1.91049882E+01
  0.00000000E+00  9.55249411E+00  9.55249411E+00 -1.91049882E+01  0.00000000E+00
  9.55249411E+00  9.55249411E+00 -1.91049882E+01  0.00000000E+00  9.55249411E+00
  9.55249411E+00 -1.91049882E+01  0.00000000E+00  9.55249411E+00  9.55249411E+00
 -1.91049882E+01  0.00000000E+00  9.55249411E+00  9.55249411E+00 -1.91049882E+01
  0.00000000E+00  9.55249411E+00  9.55249411E+00 -1.91049882E+01  0.00000000E+00
  9.55249411E+00  9.55249411E+00 -1.91049882E+01  0.00000000E+00  9.55249411E+00
  9.55249411E+00 -1.91049882E+01  0.00000000E+00  9.55249411E+00  9.55249411E+00
 -1.91049882E+01  0.00000000E+00  9.55249411E+00  9.55249411E+00 -1.91049882E+01
  0.00000000E+00  9.55249411E+00  9.55249411E+00 -1.91049882E+01  0.00000000E+00
  9.55249411E+00  9.55249411E+00 -1.91049882E+01  0.00000000E+00  9.55249411E+00
  9.55249411E+00 -1.91049882E+01  0.00000000E+00  9.55249411E+00  9.55249411E+00
 -1.91049882E+01  0.00000000E+00  9.55249411E+00  9.55249411E+00 -1.91049882E+01
  0.00000000E+00  9.55249411E+00  9.55249411E+00 -1.91049882E+01  0.00000000E+00
  9.55249411E+00  9.55249411E+00 -1.91049882E+01  0.00000000E+00  9.55249411E+00
  9.55249411E+00 -1.91049882E+01  0.00000000E+00  9.55249411E+00  9.55249411E+00
 -1.91049882E+01  0.00000000E+00  9.55249411E+00  9.55249411E+00 -1.91049882E+01
  0.00000000E+00  9.55249411E+00  9.55249411E+00 -1.91049882E+01  0.00000000E+00
  9.55249411E+00  9.55249411E+00 -1.91049882E+01  0.00000000E+00  9.55249411E+00
  9.55249411E+00 -1.91049882E+01  0.00000000E+00  9.55249411E+00  9.55249411E+00
 -1.91049882E+01  0.00000000E+00  9.55249411E+00  9.55249411E+00 -1.91049882E+01
  0.00000000E+00  9.55249411E+00  9.55249411E+00 -1.91049882E+01  0.00000000E+00
  9.55249411E+00  9.55249411E+00 -1.91049882E+01  0.00000000E+00  9.55249411E+00
  9.55249411E+00 -1.91049882E+01  0.00000000E+00  9.55249411E+00  9.55249411E+00
 -1.91049882E+01  0.00000000E+00  9.55249411E+00  9.55249411E+00 -1.91049882E+01
  0.00000000E+00  9.55249411E+00  9.55249411E+00 -1.91049882E+01  0.00000000E+00
  9.55249411E+00  9.55249411E+00 -1.91049882E+01  0.00000000E+00  9.55249411E+00
  9.55249411E+00 -1.91049882E+01  0.00000000E+00  9.55249411E+00  9.55249411E+00
 -1.91049882E+01  0.00000000E+00  9.55249411E+00  9.55249411E+00 -1.91049882E+01
  0.00000000E+00  9.55249411E+00  9.55249411E+00 -1.91049882E+01  0.00000000E+00
  9.55249411E+00  9.55249411E+00 -1.91049882E+01  0.00000000E+00  9.55249411E+00
  9.55249411E+00 -1.91049882E+01  0.00000000E+00  9.55249411E+00  9.55249411E+00
 -1.91049882E+01  0.00000000E+00  9.55249411E+00  9.55249411E+00 -1.91049882E+01
  0.00000000E+00  9.55249411E+00  9.55249411E+00 -1.91049882E+01  0.00000000E+00
  9.55249411E+00  9.55249411E+00 -1.91049882E+01  0.00000000E+00  9.55249411E+00
  9.55249411E+00 -1.91049882E+01  0.00000000E+00  9.55249411E+00  9.55249411E+00
 -1.91049882E+01  0.00000000E+00  9.55249411E+00  9.55249411E+00 -1.91049882E+01
  0.00000000E+00  9.55249411E+00  9.55249411E+00 -1.91049882E+01  0.00000000E+00
  9.55249411E+00  9.55249411E+00 -1.91049882E+01  0.00000000E+00  9.55249411E+00
  9.55249411E+00 -1.91049882E+01  0.00000000E+00  9.55249411E+00  9.55249411E+00
 -1.91049882E+01  0.00000000E+00  9.55249411E+00  9.55249411E+00 -1.91049882E+01
  0.00000000E+00  9.55249411E+00  9.55249411E+00 -1.91049882E+01  0.00000000E+00
  9.55249411E+00  9.55249411E+00 -1.91049882E+01  0.00000000E+00  9.55249411E+00
  9.55249411E+00 -1.91049882E+01  0.00000000E+00  9.55249411E+00  9.55249411E+00
 -1.91049882E+01  0.00000000E+00  9.55249411E+00  9.55249411E+00 -1.91049882E+01
  0.00000000E+00  9.55249411E+00  9.55249411E+00 -1.91049882E+01  0.00000000E+00
  9.55249411E+00  9.55249411E+00 -1.91049882E+01  0.00000000E+00  9.55249411E+00
  9.55249411E+00 -1.91049882E+01  0.00000000E+00  9.55249411E+00  9.55249411E+00
 -1.91049882E+01  0.00000000E+00  9.55249411E+00  9.55249411E+00 -1.91049882E+01
  0.00000000E+00  9.55249411E+00  9.55249411E+00 -1.91049882E+01  0.00000000E+00
  9.55249411E+00  9.55249411E+00 -1.91049882E+01  0.00000000E+00  9.55249411E+00
  9.55249411E+00 -1.91049882E+01  0.00000000E+00  9.55249411E+00  9.55249411E+00
 -1.91049882E+01  0.00000000E+00  9.55249411E+00  9.55249411E+00 -1.91049882E+01
  0.00000000E+00  9.55249411E+00  9.55249411E+00 -1.91049882E+01  0.00000000E+00
  9.55249411E+00  9.55249411E+00 -1.91049882E+01  0.00000000E+00  9.55249411E+00
  9.55249411E+00 -1.91049882E+01  0.00000000E+00  9.55249411E+00  9.55249411E+00
 -1.91049882E+01  0.00000000E+00  9.55249411E+00  9.55249411E+00 -1.91049882E+01
  0.00000000E+00  9.55249411E+00  9.55249411E+00 -1.91049882E+01  0.00000000E+00
  9.55249411E+00  9.55249411E+00 -1.91049882E+01  0.00000000E+00  9.55249411E+00
  9.55249411E+00 -1.91049882E+01  0.00000000E+00  9.55249411E+00  9.55249411E+00
 -1.91049882E+01  0.00000000E+00  9.55249411E+00  9.55249411E+00 -1.91049882E+01
  0.00000000E+00  9.55249411E+00  9.55249411E+00 -1.91049882E+01  0.00000000E+00
  9.55249411E+00  9.55249411E+00 -1.91049882E+01  0.00000000E+00  9.55249411E+00
  9.55249411E+00 -1.91049882E+01  0.00000000E+00  9.55249411E+00  9.55249411E+00
 -1.91049882E+01  0.00000000E+00  9.55249411E+00  9.55249411E+00 -1.91049882E+01
  0.00000000E+00  9.55249411E+00  9.55249411E+00 -1.91049882E+01  0.00000000E+00
  9.55249411E+00  9.55249411E+00 -1.91049882E+01  0.00000000E+00  9.55249411E+00
  9.55249411E+00 -1.91049882E+01  0.00000000E+00  9.55249411E+00  9.55249411E+00
 -1.91049882E+01  0.00000000E+00  9.55249411E+00  9.55249411E+00 -1.91049882E+01
  0.00000000E+00  9.55249411E+00  9.55249411E+00 -1.91049882E+01  0.00000000E+00
  9.55249411E+00  9.55249411E+00 -1.91049882E+01  0.00000000E+00  9.55249411E+00
  9.55249411E+00 -1.91049882E+01  0.00000000E+00  9.55249411E+00  9.55249411E+00
 -1.91049882E+01  0.00000000E+00  9.55249411E+00  9.55249411E+00 -1.91049882E+01
  0.00000000E+00  9.55249411E+00  9.55249411E+00 -1.91049882E+01  0.00000000E+00
  9.55249411E+00  9.55249411E+00 -1.91049882E+01  0.00000000E+00  9.55249411E+00
  9.55249411E+00 -1.91049882E+01  0.00000000E+00  9.55249411E+00  9.55249411E+00
 -1.91049882E+01  0.00000000E+00  9.55249411E+00  9.55249411E+00 -1.91049882E+01
  0.00000000E+00  9.55249411E+00  9.55249411E+00 -1.91049882E+01  0.00000000E+00
  9.55249411E+00  9.55249411E+00 -1.91049882E+01  0.00000000E+00  9.55249411E+00
  9.55249411E+00 -1.91049882E+01  0.00000000E+00  9.55249411E+00  9.55249411E+00
 -1.91049882E+01  0.00000000E+00  9.55249411E+00  9.55249411E+00 -1.91049882E+01
  0.00000000E+00  9.55249411E+00  9.55249411E+00 -1.91049882E+01  0.00000000E+00
  9.55249411E+00  9.55249411E+00 -1.91049882E+01  0.00000000E+00  9.55249411E+00
  9.55249411E+00 -1.91049882E+01  0.00000000E+00  9.55249411E+00  9.55249411E+00
 -1.91049882E+01  0.00000000E+00  9.55249411E+00  9.55249411E+00 -1.91049882E+01
  0.00000000E+00  9.55249411E+00  9.55249411E+00 -1.91049882E+01  0.00000000E+00
  9.55249411E+00  9.55249411E+00 -1.91049882E+01  0.00000000E+00  9.55249411E+00
  9.55249411E+00 -1.91049882E+01  0.00000000E+00  9.55249411E+00  9.55249411E+00
 -1.91049882E+01  0.00000000E+00  9.55249411E+00  9.55249411E+00 -1.91049882E+01
  0.00000000E+00  9.55249411E+00  9.55249411E+00 -1.91049882E+01  0.00000000E+00
  9.55249411E+00  9.55249411E+00 -1.91049882E+01  0.00000000E+00  9.55249411E+00
  9.55249411E+00 -1.91049882E+01  0.00000000E+00  9.55249411E+00  9.55249411E+00
 -1.91049882E+01  0.00000000E+00  9.55249411E+00  9.55249411E+00 -1.91049882E+01
  0.00000000E+00  9.55249411E+00  9.55249411E+00 -1.91049882E+01  0.00000000E+00
  9.55249411E+00  9.55249411E+00 -1.91049882E+01  0.00000000E+00  9.55249411E+00
  9.55249411E+00 -1.91049882E+01  0.00000000E+00  9.55249411E+00  9.55249411E+00
 -1.91049882E+01  0.00000000E+00  9.55249411E+00  9.55249411E+00 -1.91049882E+01
  0.00000000E+00  9.55249411E+00  9.55249411E+00 -1.91049882E+01  0.00000000E+00
  9.55249411E+00  9.55249411E+00 -1.91049882E+01  0.00000000E+00  9.55249411E+00
  9.55249411E+00 -1.91049882E+01  0.00000000E+00  9.55249411E+00  9.55249411E+00
 -1.91049882E+01  0.00000000E+00  9.55249411E+00  9.55249411E+00 -1.91049882E+01
  0.00000000E+00  9.55249411E+00  9.55249411E+00 -1.91049882E+01  0.00000000E+00
  9.55249411E+00  9.55249411E+00 -1.91049882E+01  0.00000000E+00  9.55249411E+00
  9.55249411E+00 -1.91049882E+01  0.00000000E+00  9.55249411E+00  9.55249411E+00
 -1.91049882E+01  0.00000000E+00  9.55249411E+00  9.55249411E+00 -1.91049882E+01
  0.00000000E+00  9.55249411E+00  9.55249411E+00 -1.91049882E+01  0.00000000E+00
  9.55249411E+00  9.55249411E+00 -1.91049882E+01  0.00000000E+00  9.55249411E+00
  9.55249411E+00 -1.91049882E+01  0.00000000E+00  9.55249411E+00  9.55249411E+00
 -1.91049882E+01  0.00000000E+00  9.55249411E+00  9.55249411E+00 -1.91049882E+01
  0.00000000E+00  9.55249411E+00  9.55249411E+00 -1.91049882E+01  0.00000000E+00
  9.55249411E+00  9.55249411E+00 -1.91049882E+01  0.00000000E+00  9.55249411E+00
  9.55249411E+00 -1.91049882E+01  0.00000000E+00  9.55249411E+00  9.55249411E+00
 -1.91049882E+01  0.00000000E+00  9.55249411E+00  9.55249411E+00 -1.91049882E+01
  0.00000000E+00  9.55249411E+00  9.55249411E+00 -1.91049882E+01  0.00000000E+00
  9.55249411E+00  9.55249411E+00 -1.91049882E+01  0.00000000E+00  9.55249411E+00
  9.55249411E+00 -1.91049882E+01  0.00000000E+00  9.55249411E+00  9.55249411E+00
 -1.91049882E+01  0.00000000E+00  9.55249411E+00  9.55249411E+00 -1.91049882E+01
  0.00000000E+00  9.55249411E+00  9.55249411E+00 -1.91049882E+01  0.00000000E+00
  9.55249411E+00  9.55249411E+00 -1.91049882E+01  0.00000000E+00  9.55249411E+00
  9.55249411E+00 -1.91049882E+01  0.00000000E+00  9.55249411E+00  9.55249411E+00
 -1.91049882E+01  0.00000000E+00  9.55249411E+00  9.55249411E+00 -1.91049882E+01
  0.00000000E+00  9.55249411E+00  9.55249411E+00 -1.91049882E+01  0.00000000E+00
  9.55249411E+00  9.55249411E+00 -1.91049882E+01  0.00000000E+00  9.55249411E+00
  9.55249411E+00 -1.91049882E+01  0.00000000E+00  9.55249411E+00  9.55249411E+00
 -1.91049882E+01  0.00000000E+00  9.55249411E+00  9.55249411E+00 -1.91049882E+01
  0.00000000E+00  9.55249411E+00  9.55249411E+00 -1.91049882E+01  0.00000000E+00
  9.55249411E+00  9.55249411E+00 -1.91049882E+01  0.00000000E+00  9.55249411E+00
  9.55249411E+00 -1.91049882E+01  0.00000000E+00  9.55249411E+00  9.55249411E+00
 -1.91049882E+01  0.00000000E+00  9.55249411E+00  9.55249411E+00 -1.91049882E+01
  0.00000000E+00  9.55249411E+00  9.55249411E+00 -1.91049882E+01  0.00000000E+00
  9.55249411E+00  9.55249411E+00 -1.91049882E+01  0.00000000E+00  9.55249411E+00
  9.55249411E+00 -1.91049882E+01
%FLAG ATOMIC_NUMBER                                                             
%FORMAT(10I8)                                                                   
      11      17      11      17      11      17      11      17      11      17
       8       6       7       6       7       7       6       6       6       6
       6       6       7       6       6       7       6       7       1       1
       1       1       1       1       1       1       1       1       8       1
       1       0       8       1       1       0       8       1       1       0
       8       1       1       0       8       1       1       0       8       1
       1       0       8       1       1       0       8       1       1       0
       8       1       1       0       8       1       1       0       8       1
       1       0       8       1       1       0       8       1       1       0
       8       1       1       0       8       1       1       0       8       1
       1       0       8       1       1       0       8       1       1       0
       8       1       1       0       8       1       1       0       8       1
       1       0       8       1       1       0       8       1       1       0
       8       1       1       0       8       1       1       0       8       1
       1       0       8       1       1       0       8       1       1       0
       8       1       1       0       8       1       1       0       8       1
       1       0       8       1       1       0       8       1       1       0
       8       1       1       0       8       1       1       0       8       1
       1       0       8       1       1       0       8       1       1       0
       8       1       1       0       8       1       1       0       8       1
       1       0       8       1       1       0       8       1       1       0
       8       1       1       0       8       1       1       0       8       1
       1       0       8       1       1       0       8       1       1       0
       8       1       1       0       8       1       1       0       8       1
       1       0       8       1       1       0       8       1       1       0
       8       1       1       0       8       1       1       0       8       1
       1       0       8       1       1       0       8       1       1       0
       8       1       1       0       8       1       1       0       8       1
       1       0       8       1       1       0       8       1       1       0
       8       1       1       0       8       1       1       0       8       1
       1       0       8       1       1       0       8       1       1       0
       8       1       1       0       8       1       1       0       8       1
       1       0       8       1       1       0       8       1       1       0
       8       1       1       0       8       1       1       0       8       1
       1       0       8       1       1       0       8       1       1       0
       8       1       1       0       8       1       1       0       8       1
       1       0       8       1       1       0       8       1       1       0
       8       1       1       0       8       1       1       0       8       1
       1       0       8       1       1       0       8       1       1       0
       8       1       1       0       8       1       1       0       8       1
       1       0       8       1       1       0       8       1       1       0
       8       1       1       0       8       1       1       0       8       1
       1       0       8       1       1       0       8       1       1       0
       8       1       1       0       8       1       1       0       8       1
       1       0       8       1       1       0       8       1       1       0
       8       1       1       0       8       1       1       0       8       1
       1       0       8       1       1       0       8       1       1       0
       8       1       1       0       8       1       1       0       8       1
       1       0       8       1       1       0       8       1       1       0
       8       1       1       0       8       1       1       0       8       1
       1       0       8       1       1       0       8       1       1       0
       8       1       1       0       8       1       1       0       8       1
       1       0       8       1       1       0       8       1       1       0
       8       1       1       0       8       1       1       0       8       1
       1       0       8       1       1       0       8       1       1       0
       8       1       1       0       8       1       1       0       8       1
       1       0       8       1       1       0       8       1       1       0
       8       1       1       0       8       1       1       0       8       1
       1       0       8       1       1       0       8       1       1       0
       8       1       1       0       8       1       1       0       8       1
       1       0       8       1       1       0       8       1       1       0
       8       1       1       0       8       1       1       0       8       1
       1       0       8       1       1       0       8       1       1       0
       8       1       1       0       8       1       1       0       8       1
       1       0       8       1       1       0       8       1       1       0
       8       1       1       0       8       1       1       0       8       1
       1       0       8       1       1       0       8       1       1       0
       8       1       1       0       8       1       1       0       8       1
       1       0       8       1       1       0       8       1       1       0
       8       1       1       0       8       1       1       0       8       1
       1       0       8       1       1       0       8       1       1       0
       8       1       1       0       8       1       1       0       8       1
       1       0       8       1       1       0       8       1       1       0
       8       1       1       0       8       1       1       0       8       1
       1       0       8       1       1       0       8       1       1       0
       8       1       1       0       8       1       1       0       8       1
       1       0       8       1       1       0       8       1       1       0
       8       1       1       0       8       1       1       0       8       1
       1       0       8       1       1       0       8       1       1       0
       8       1       1       0       8       1       1       0       8       1
       1       0       8       1       1       0       8       1       1       0
       8       1       1       0       8       1       1       0       8       1
       1       0       8       1       1       0       8       1       1       0
       8       1       1       0       8       1       1       0       8       1
       1       0       8       1       1       0       8       1       1       0
       8       1       1       0       8       1       1       0       8       1
       1       0       8       1       1       0       8       1       1       0
       8       1       1       0       8       1       1       0       8       1
       1       0       8       1       1       0       8       1       1       0
       8       1       1       0       8       1       1       0       8       1
       1       0       8       1       1       0       8       1       1       0
       8       1       1       0       8       1       1       0       8       1
       1       0       8       1       1       0       8       1       1       0
       8       1       1       0       8       1       1       0       8       1
       1       0       8       1       1       0       8       1       1       0
       8       1       1       0       8       1       1       0       8       1
       1       0       8       1       1       0       8       1       1       0
       8       1       1       0       8       1       1       0       8       1
       1       0       8       1       1       0       8       1       1       0
       8       1       1       0       8       1       1       0       8       1
       1       0       8       1       1       0       8       1       1       0
       8       1       1       0       8       1       1       0       8       1
       1       0       8       1       1       0       8       1       1       0
       8       1       1       0       8       1       1       0       8       1
       1       0       8       1       1       0       8       1       1       0
       8       1       1       0       8       1       1       0       8       1
       1       0       8       1       1       0       8       1       1       0
       8       1       1       0       8       1       1       0       8       1
       1       0       8       1       1       0       8       1       1       0
       8       1       1       0       8       1       1       0       8       1
       1       0       8       1       1       0       8       1       1       0
       8       1       1       0       8       1       1       0       8       1
       1       0       8       1       1       0       8       1       1       0
       8       1       1       0       8       1       1       0       8       1
       1       0       8       1       1       0       8       1       1       0
       8       1       1       0       8       1       1       0       8       1
       1       0       8       1       1       0       8       1       1       0
       8       1       1       0       8       1       1       0       8       1
       1       0       8       1       1       0       8       1       1       0
       8       1       1       0       8       1       1       0       8       1
       1       0       8       1       1       0       8       1       1       0
       8       1       1       0       8       1       1       0       8       1
       1       0       8       1       1       0       8       1       1       0
       8       1       1       0       8       1       1       0       8       1
       1       0       8       1       1       0       8       1       1       0
       8       1       1       0       8       1       1       0       8       1
       1       0       8       1       1       0       8       1       1       0
       8       1       1       0       8       1       1       0       8       1
       1       0       8       1       1       0       8       1       1       0
       8       1       1       0       8       1       1       0       8       1
       1       0       8       1       1       0       8       1       1       0
       8       1       1       0       8       1       1       0       8       1
       1       0       8       1       1       0       8       1       1       0
       8       1       1       0       8       1       1       0       8       1
       1       0       8       1       1       0       8       1       1       0
       8       1       1       0       8       1       1       0       8       1
       1       0       8       1       1       0       8       1       1       0
       8       1       1       0       8       1       1       0       8       1
       1       0       8       1       1       0       8       1       1       0
       8       1       1       0       8       1       1       0       8       1
       1       0       8       1       1       0       8       1       1       0
       8       1       1       0       8       1       1       0       8       1
       1       0       8       1       1       0       8       1       1       0
       8       1       1       0       8       1       1       0       8       1
       1       0       8       1       1       0       8       1       1       0
       8       1       1       0       8       1       1       0       8       1
       1       0       8       1       1       0       8       1       1       0
       8       1       1       0       8       1       1       0       8       1
       1       0       8       1       1       0       8       1       1       0
       8       1       1       0       8       1       1       0       8       1
       1       0       8       1       1       0       8       1       1       0
       8       1       1       0       8       1       1       0       8       1
       1       0       8       1       1       0       8       1       1       0
       8       1       1       0       8       1       1       0       8       1
       1       0       8       1       1       0       8       1       1       0
       8       1       1       0       8       1       1       0       8       1
       1       0       8       1       1       0       8       1       1       0
       8       1       1       0       8       1       1       0       8       1
       1       0       8       1       1       0       8       1       1       0
       8       1       1       0       8       1       1       0       8       1
       1       0       8       1       1       0       8       1       1       0
       8       1       1       0       8       1       1       0       8       1
       1       0       8       1       1       0       8       1       1       0
       8       1       1       0       8       1       1       0       8       1
       1       0       8       1       1       0       8       1       1       0
       8       1       1       0       8       1       1       0       8       1
       1       0       8       1       1       0       8       1       1       0
       8       1       1       0       8       1       1       0       8       1
       1       0       8       1       1       0       8       1       1       0
       8       1       1       0       8       1       1       0       8       1
       1       0       8       1       1       0       8       1       1       0
       8       1       1       0       8       1       1       0       8       1
       1       0       8       1       1       0       8       1       1       0
       8       1       1       0       8       1       1       0       8       1
       1       0       8       1       1       0       8       1       1       0
       8       1       1       0       8       1       1       0       8       1
       1       0       8       1       1       0       8       1       1       0
       8       1       1       0       8       1       1       0       8       1
       1       0       8       1       1       0       8       1       1       0
       8       1       1       0       8       1       1       0       8       1
       1       0       8       1       1       0       8       1       1       0
       8       1       1       0       8       1       1       0       8       1
       1       0       8       1       1       0       8       1       1       0
       8       1       1       0       8       1       1       0       8       1
       1       0       8       1       1       0       8       1       1       0
       8       1       1       0       8       1       1       0       8       1
       1       0       8       1       1       0       8       1       1       0
       8       1       1       0       8       1       1       0       8       1
       1       0       8       1       1       0       8       1       1       0
       8       1       1       0       8       1       1       0       8       1
       1       0       8       1       1       0       8       1       1       0
       8       1       1       0       8       1       1       0       8       1
       1       0       8       1       1       0       8       1       1       0
       8       1       1       0       8       1       1       0       8       1
       1       0       8       1       1       0       8       1       1       0
       8       1       1       0       8       1       1       0       8       1
       1       0       8       1       1       0       8       1       1       0
       8       1       1       0       8       1       1       0       8       1
       1       0       8       1       1       0       8       1       1       0
       8       1       1       0       8       1       1       0       8       1
       1       0       8       1       1       0       8       1       1       0
       8       1       1       0       8       1       1       0       8       1
       1       0       8       1       1       0       8       1       1       0
       8       1       1       0       8       1       1       0       8       1
       1       0       8       1       1       0       8       1       1       0
       8       1       1       0       8       1       1       0       8       1
       1       0       8       1       1       0       8       1       1       0
       8       1       1       0       8       1       1       0       8       1
       1       0       8       1       1       0       8       1       1       0
       8       1       1       0       8       1       1       0       8       1
       1       0       8       1       1       0       8       1       1       0
       8       1       1       0       8       1       1       0       8       1
       1       0       8       1       1       0       8       1       1       0
       8       1       1       0       8       1       1       0       8       1
       1       0       8       1       1       0       8       1       1       0
       8       1       1       0       8       1       1       0       8       1
       1       0       8       1       1       0       8       1       1       0
       8       1       1       0       8       1       1       0       8       1
       1       0       8       1       1       0       8       1       1       0
       8       1       1       0       8       1       1       0       8       1
       1       0       8       1       1       0       8       1       1       0
       8       1       1       0       8       1       1       0       8       1
       1       0       8       1       1       0       8       1       1       0
       8       1       1       0       8       1       1       0       8       1
       1       0       8       1       1       0       8       1       1       0
       8       1       1       0       8       1       1       0       8       1
       1       0       8       1       1       0       8       1       1       0
       8       1       1       0       8       1       1       0       8       1
       1       0       8       1       1       0       8       1       1       0
       8       1       1       0       8       1       1       0       8       1
       1       0       8       1       1       0       8       1       1       0
       8       1       1       0       8       1       1       0       8       1
       1       0       8       1       1       0       8       1       1       0
       8       1       1       0       8       1       1       0       8       1
       1       0       8       1       1       0       8       1       1       0
       8       1       1       0       8       1       1       0       8       1
       1       0       8       1       1       0       8       1       1       0
       8       1       1       0       8       1       1       0       8       1
       1       0       8       1       1       0       8       1       1       0
       8       1       1       0       8       1       1       0       8       1
       1       0       8       1       1       0       8       1       1       0
       8       1       1       0       8       1       1       0       8       1
       1       0       8       1       1       0       8       1       1       0
       8       1       1       0       8       1       1       0       8       1
       1       0       8       1       1       0       8       1       1       0
       8       1       1       0       8       1       1       0       8       1
       1       0       8       1       1       0       8       1       1       0
       8       1       1       0       8       1       1       0       8       1
       1       0       8       1       1       0       8       1       1       0
       8       1       1       0       8       1       1       0       8       1
       1       0       8       1       1       0       8       1       1       0
       8       1       1       0       8       1       1       0       8       1
       1       0       8       1       1       0       8       1       1       0
       8       1       1       0       8       1       1       0       8       1
       1       0       8       1       1       0       8       1       1       0
       8       1       1       0       8       1       1       0       8       1
       1       0       8       1       1       0       8       1       1       0
       8       1       1       0       8       1       1       0       8       1
       1       0       8       1       1       0       8       1       1       0
       8       1       1       0       8       1       1       0       8       1
       1       0       8       1       1       0       8       1       1       0
       8       1       1       0       8       1       1       0       8       1
       1       0       8       1       1       0       8       1       1       0
       8       1       1       0       8       1       1       0       8       1
       1       0       8       1       1       0       8       1       1       0
       8       1       1       0       8       1       1       0       8       1
       1       0       8       1       1       0       8       1       1       0
       8       1       1       0       8       1       1       0       8       1
       1       0       8       1       1       0       8       1       1       0
       8       1       1       0       8       1       1       0       8       1
       1       0       8       1       1       0       8       1       1       0
       8       1       1       0       8       1       1       0       8       1
       1       0       8       1       1       0       8       1       1       0
       8       1       1       0       8       1       1       0       8       1
       1       0       8       1       1       0       8       1       1       0
       8       1       1       0       8       1       1       0       8       1
       1       0       8       1       1       0       8       1       1       0
       8       1       1       0       8       1       1       0       8       1
       1       0       8       1       1       0       8       1       1       0
       8       1       1       0       8       1       1       0       8       1
       1       0       8       1       1       0       8       1       1       0
       8       1       1       0       8       1       1       0       8       1
       1       0       8       1       1       0       8       1       1       0
       8       1       1       0       8       1       1       0       8       1
       1       0       8       1       1       0       8       1       1       0
       8       1       1       0       8       1       1       0       8       1
       1       0       8       1       1       0       8       1       1       0
       8       1       1       0       8       1       1       0       8       1
       1       0       8       1       1       0       8       1       1       0
       8       1       1       0       8       1       1       0       8       1
       1       0       8       1       1       0       8       1       1       0
       8       1       1       0       8       1       1       0       8       1
       1       0       8       1       1       0       8       1       1       0
       8       1       1       0       8       1       1       0       8       1
       1       0       8       1       1       0       8       1       1       0
       8       1       1       0       8       1       1       0       8       1
       1       0       8       1       1       0       8       1       1       0
       8       1       1       0       8       1       1       0       8       1
       1       0       8       1       1       0       8       1       1       0
       8       1       1       0       8       1       1       0       8       1
       1       0       8       1       1       0       8       1       1       0
       8       1       1       0       8       1       1       0       8       1
       1       0       8       1       1       0       8       1       1       0
       8       1       1       0       8       1       1       0       8       1
       1       0       8       1       1       0       8       1       1       0
       8       1       1       0       8       1       1       0       8       1
       1       0       8       1       1       0       8       1       1       0
       8       1       1       0       8       1       1       0       8       1
       1       0       8       1       1       0       8       1       1       0
       8       1       1       0       8       1       1       0       8       1
       1       0       8       1       1       0       8       1       1       0
       8       1       1       0       8       1       1       0       8       1
       1       0       8       1       1       0       8       1       1       0
       8       1       1       0       8       1       1       0       8       1
       1       0       8       1       1       0       8       1       1       0
       8       1       1       0       8       1       1       0       8       1
       1       0       8       1       1       0       8       1       1       0
       8       1       1       0       8       1       1       0       8       1
       1       0       8       1       1       0       8       1       1       0
       8       1       1       0       8       1       1       0       8       1
       1       0       8       1       1       0       8       1       1       0
       8       1       1       0       8       1       1       0       8       1
       1       0       8       1       1       0       8       1       1       0
       8       1       1       0       8       1       1       0       8       1
       1       0       8       1       1       0       8       1       1       0
       8       1       1       0       8       1       1       0       8       1
       1       0       8       1       1       0       8       1       1       0
       8       1       1       0       8       1       1       0       8       1
       1       0       8       1       1       0       8       1       1       0
       8       1       1       0       8       1       1       0       8       1
       1       0       8       1       1       0       8       1       1       0
       8       1       1       0       8       1       1       0       8       1
       1       0       8       1       1       0       8       1       1       0
       8       1       1       0       8       1       1       0       8       1
       1       0       8       1       1       0       8       1       1       0
       8       1       1       0       8       1       1       0       8       1
       1       0       8       1       1       0       8       1       1       0
       8       1       1       0       8       1       1       0       8       1
       1       0       8       1       1       0       8       1       1       0
       8       1       1       0       8       1       1       0       8       1
       1       0       8       1       1       0       8       1       1       0
       8       1       1       0       8       1       1       0       8       1
       1       0       8       1       1       0       8       1       1       0
       8       1       1       0       8       1       1       0       8       1
       1       0       8       1       1       0       8       1       1       0
       8       1       1       0       8       1       1       0       8       1
       1       0       8       1       1       0       8       1       1       0
       8       1       1       0       8       1       1       0       8       1
       1       0       8       1       1       0       8       1       1       0
       8       1       1       0       8       1       1       0       8       1
       1       0       8       1       1       0       8       1       1       0
       8       1       1       0       8       1       1       0       8       1
       1       0       8       1       1       0       8       1       1       0
       8       1       1       0       8       1       1       0       8       1
       1       0       8       1       1       0       8       1       1       0
       8       1       1       0       8       1       1       0       8       1
       1       0       8       1       1       0       8       1       1       0
       8       1       1       0       8       1       1       0       8       1
       1       0       8       1       1       0       8       1       1       0
       8       1       1       0       8       1       1       0       8       1
       1       0       8       1       1       0       8       1       1       0
       8       1       1       0       8       1       1       0       8       1
       1       0       8       1       1       0       8       1       1       0
       8       1       1       0       8       1       1       0       8       1
       1       0       8       1       1       0       8       1       1       0
       8       1       1       0       8       1       1       0       8       1
       1       0       8       1       1       0       8       1       1       0
       8       1       1       0       8       1       1       0       8       1
       1       0       8       1       1       0       8       1       1       0
       8       1       1       0       8       1       1       0       8       1
       1       0       8       1       1       0       8       1       1       0
       8       1       1       0       8       1       1       0       8       1
       1       0       8       1       1       0       8       1       1       0
       8       1       1       0       8       1       1       0       8       1
       1       0       8       1       1       0       8       1       1       0
       8       1       1       0       8       1       1       0       8       1
       1       0       8       1       1       0       8       1       1       0
       8       1       1       0       8       1       1       0       8       1
       1       0       8       1       1       0       8       1       1       0
       8       1       1       0       8       1       1       0       8       1
       1       0       8       1       1       0       8       1       1       0
       8       1       1       0       8       1       1       0       8       1
       1       0       8       1       1       0       8       1       1       0
       8       1       1       0       8       1       1       0       8       1
       1       0       8       1       1       0       8       1       1       0
       8       1       1       0       8       1       1       0       8       1
       1       0       8       1       1       0       8       1       1       0
       8       1       1       0       8       1       1       0       8       1
       1       0       8       1       1       0       8       1       1       0
       8       1       1       0       8       1       1       0       8       1
       1       0       8       1       1       0       8       1       1       0
       8       1       1       0       8       1       1       0       8       1
       1       0       8       1       1       0       8       1       1       0
       8       1       1       0       8       1       1       0       8       1
       1       0       8       1       1       0       8       1       1       0
       8       1       1       0       8       1       1       0       8       1
       1       0       8       1       1       0       8       1       1       0
       8       1       1       0       8       1       1       0       8       1
       1       0       8       1       1       0       8       1       1       0
       8       1       1       0       8       1       1       0       8       1
       1       0       8       1       1       0       8       1       1       0
       8       1       1       0       8       1       1       0       8       1
       1       0       8       1       1       0       8       1       1       0
       8       1       1       0       8       1       1       0       8       1
       1       0       8       1       1       0       8       1       1       0
       8       1       1       0       8       1       1       0       8       1
       1       0       8       1       1       0       8       1       1       0
       8       1       1       0       8       1       1       0       8       1
       1       0       8       1       1       0       8       1       1       0
       8       1       1       0       8       1       1       0       8       1
       1       0       8       1       1       0       8       1       1       0
       8       1       1       0       8       1       1       0       8       1
       1       0       8       1       1       0       8       1       1       0
       8       1       1       0       8       1       1       0       8       1
       1       0       8       1       1       0       8       1       1       0
       8       1       1       0       8       1       1       0       8       1
       1       0       8       1       1       0       8       1       1       0
       8       1       1       0       8       1       1       0       8       1
       1       0       8       1       1       0       8       1       1       0
       8       1       1       0       8       1       1       0       8       1
       1       0       8       1       1       0       8       1       1       0
       8       1       1       0       8       1       1       0       8       1
       1       0       8       1       1       0       8       1       1       0
       8       1       1       0       8       1       1       0       8       1
       1       0       8       1       1       0       8       1       1       0
       8       1       1       0       8       1       1       0       8       1
       1       0       8       1       1       0       8       1       1       0
       8       1       1       0       8       1       1       0       8       1
       1       0       8       1       1       0       8       1       1       0
       8       1       1       0       8       1       1       0       8       1
       1       0       8       1       1       0       8       1       1       0
       8       1       1       0       8       1       1       0       8       1
       1       0       8       1       1       0       8       1       1       0
       8       1       1       0       8       1       1       0       8       1
       1       0       8       1       1       0       8       1       1       0
       8       1       1       0       8       1       1       0       8       1
       1       0       8       1       1       0       8       1       1       0
       8       1       1       0       8       1       1       0       8       1
       1       0       8       1       1       0       8       1       1       0
       8       1       1       0       8       1       1       0       8       1
       1       0       8       1       1       0       8       1       1       0
       8       1       1       0       8       1       1       0       8       1
       1       0       8       1       1       0       8       1       1       0
       8       1       1       0       8       1       1       0       8       1
       1       0       8       1       1       0       8       1       1       0
       8       1       1       0       8       1       1       0       8       1
       1       0       8       1       1       0       8       1       1       0
       8       1       1       0       8       1       1       0       8       1
       1       0       8       1       1       0       8       1       1       0
       8       1       1       0       8       1       1       0       8       1
       1       0       8       1       1       0       8       1       1       0
       8       1       1       0       8       1       1       0       8       1
       1       0       8       1       1       0       8       1       1       0
       8       1       1       0       8       1       1       0       8       1
       1       0       8       1       1       0       8       1       1       0
       8       1       1       0       8       1       1       0       8       1
       1       0       8       1       1       0       8       1       1       0
       8       1       1       0       8       1       1       0       8       1
       1       0       8       1       1       0       8       1       1       0
       8       1       1       0       8       1       1       0       8       1
       1       0       8       1       1       0       8       1       1       0
       8       1       1       0       8       1       1       0       8       1
       1       0       8       1       1       0       8       1       1       0
       8       1       1       0       8       1       1       0       8       1
       1       0       8       1       1       0       8       1       1       0
       8       1       1       0       8       1       1       0       8       1
       1       0       8       1       1       0       8       1       1       0
       8       1       1       0       8       1       1       0       8       1
       1       0       8       1       1       0       8       1       1       0
       8       1       1       0       8       1       1       0       8       1
       1       0       8       1       1       0       8       1       1       0
       8       1       1       0       8       1       1       0       8       1
       1       0       8       1       1       0       8       1       1       0
       8       1       1       0       8       1       1       0       8       1
       1       0       8       1       1       0       8       1       1       0
       8       1       1       0       8       1       1       0       8       1
       1       0       8       1       1       0       8       1       1       0
       8       1       1       0       8       1       1       0       8       1
       1       0       8       1       1       0       8       1       1       0
       8       1       1       0       8       1       1       0       8       1
       1       0       8       1       1       0       8       1       1       0
       8       1       1       0       8       1       1       0       8       1
       1       0       8       1       1       0       8       1       1       0
       8       1       1       0       8       1       1       0       8       1
       1       0       8       1       1       0       8       1       1       0
       8       1       1       0       8       1       1       0       8       1
       1       0       8       1       1       0       8       1       1       0
       8       1       1       0       8       1       1       0       8       1
       1       0       8       1       1       0       8       1       1       0
       8       1       1       0       8       1       1       0       8       1
       1       0       8       1       1       0       8       1       1       0
       8       1       1       0       8       1       1       0       8       1
       1       0       8       1       1       0       8       1       1       0
       8       1       1       0       8       1       1       0       8       1
       1       0       8       1       1       0       8       1       1       0
       8       1       1       0       8       1       1       0       8       1
       1       0       8       1       1       0       8       1       1       0
       8       1       1       0       8       1       1       0       8       1
       1       0       8       1       1       0       8       1       1       0
       8       1       1       0       8       1       1       0       8       1
       1       0       8       1       1       0       8       1       1       0
       8       1       1       0       8       1       1       0       8       1
       1       0       8       1       1       0       8       1       1       0
       8       1       1       0       8       1       1       0       8       1
       1       0       8       1       1       0       8       1       1       0
       8       1       1       0       8       1       1       0       8       1
       1       0       8       1       1       0       8       1       1       0
       8       1       1       0       8       1       1       0       8       1
       1       0       8       1       1       0       8       1       1       0
       8       1       1       0       8       1       1       0       8       1
       1       0       8       1       1       0       8       1       1       0
       8       1       1       0       8       1       1       0       8       1
       1       0       8       1       1       0       8       1       1       0
       8       1       1       0       8       1       1       0       8       1
       1       0       8       1       1       0       8       1       1       0
       8       1       1       0       8       1       1       0       8       1
       1       0       8       1       1       0       8       1       1       0
       8       1       1       0       8       1       1       0       8       1
       1       0       8       1       1       0       8       1       1       0
       8       1       1       0       8       1       1       0       8       1
       1       0       8       1       1       0       8       1       1       0
       8       1       1       0       8       1       1       0       8       1
       1       0       8       1       1       0       8       1       1       0
       8       1       1       0       8       1       1       0       8       1
       1       0       8       1       1       0       8       1       1       0
       8       1       1       0       8       1       1       0       8       1
       1       0       8       1       1       0       8       1       1       0
       8       1       1       0       8       1       1       0       8       1
       1       0       8       1       1       0       8       1       1       0
       8       1       1       0       8       1       1       0       8       1
       1       0       8       1       1       0       8       1       1       0
       8       1       1       0       8       1       1       0       8       1
       1       0       8       1       1       0       8       1       1       0
       8       1       1       0       8       1       1       0       8       1
       1       0       8       1       1       0       8       1       1       0
       8       1       1       0       8       1       1       0       8       1
       1       0       8       1       1       0       8       1       1       0
       8       1       1       0       8       1       1       0       8       1
       1       0       8       1       1       0       8       1       1       0
       8       1       1       0       8       1       1       0       8       1
       1       0       8       1       1       0       8       1       1       0
       8       1       1       0       8       1       1       0       8       1
       1       0       8       1       1       0       8       1       1       0
       8       1       1       0       8       1       1       0       8       1
       1       0       8       1       1       0       8       1       1       0
       8       1       1       0       8       1       1       0       8       1
       1       0       8       1       1       0       8       1       1       0
       8       1       1       0       8       1       1       0       8       1
       1       0       8       1       1       0       8       1       1       0
       8       1       1       0       8       1       1       0       8       1
       1       0       8       1       1       0       8       1       1       0
       8       1       1       0       8       1       1       0       8       1
       1       0       8       1       1       0       8       1       1       0
       8       1       1       0       8       1       1       0       8       1
       1       0       8       1       1       0       8       1       1       0
       8       1       1       0       8       1       1       0       8       1
       1       0       8       1       1       0       8       1       1       0
       8       1       1       0       8       1       1       0       8       1
       1       0       8       1       1       0       8       1       1       0
       8       1       1       0       8       1       1       0       8       1
       1       0       8       1       1       0       8       1       1       0
       8       1       1       0       8       1       1       0       8       1
       1       0       8       1       1       0       8       1       1       0
       8       1       1       0       8       1       1       0       8       1
       1       0       8       1       1       0       8       1       1       0
       8       1       1       0       8       1       1       0       8       1
       1       0       8       1       1       0       8       1       1       0
       8       1       1       0       8       1       1       0       8       1
       1       0       8       1       1       0       8       1       1       0
       8       1       1       0       8       1       1       0       8       1
       1       0       8       1       1       0       8       1       1       0
       8       1       1       0       8       1       1       0       8       1
       1       0       8       1       1       0       8       1       1       0
       8       1       1       0       8       1       1       0       8       1
       1       0       8       1       1       0       8       1       1       0
       8       1       1       0       8       1       1       0       8       1
       1       0       8       1       1       0       8       1       1       0
       8       1       1       0       8       1       1       0       8       1
       1       0       8       1       1       0       8       1       1       0
       8       1       1       0       8       1       1       0       8       1
       1       0       8       1       1       0       8       1       1       0
       8       1       1       0       8       1       1       0       8       1
       1       0       8       1       1       0       8       1       1       0
       8       1       1       0       8       1       1       0       8       1
       1       0       8       1       1       0       8       1       1       0
       8       1       1       0       8       1       1       0       8       1
       1       0       8       1       1       0       8       1       1       0
       8       1       1       0       8       1       1       0       8       1
       1       0       8       1       1       0       8       1       1       0
       8       1       1       0       8       1       1       0       8       1
       1       0       8       1       1       0       8       1       1       0
       8       1       1       0       8       1       1       0       8       1
       1       0       8       1       1       0       8       1       1       0
       8       1       1       0       8       1       1       0       8       1
       1       0       8       1       1       0       8       1       1       0
       8       1       1       0       8       1       1       0       8       1
       1       0       8       1       1       0       8       1       1       0
       8       1       1       0       8       1       1       0       8       1
       1       0       8       1       1       0       8       1       1       0
       8       1       1       0       8       1       1       0       8       1
       1       0       8       1       1       0       8       1       1       0
       8       1       1       0       8       1       1       0       8       1
       1       0       8       1       1       0       8       1       1       0
       8       1       1       0       8       1       1       0       8       1
       1       0       8       1       1       0       8       1       1       0
       8       1       1       0       8       1       1       0       8       1
       1       0       8       1       1       0       8       1       1       0
       8       1       1       0       8       1       1       0       8       1
       1       0       8       1       1       0       8       1       1       0
       8       1       1       0       8       1       1       0       8       1
       1       0       8       1       1       0       8       1       1       0
       8       1       1       0       8       1       1       0       8       1
       1       0       8       1       1       0       8       1       1       0
       8       1       1       0       8       1       1       0       8       1
       1       0       8       1       1       0       8       1       1       0
       8       1       1       0       8       1       1       0       8       1
       1       0       8       1       1       0       8       1       1       0
       8       1       1       0       8       1       1       0       8       1
       1       0       8       1       1       0       8       1       1       0
       8       1       1       0       8       1       1       0       8       1
       1       0       8       1       1       0       8       1       1       0
       8       1       1       0       8       1       1       0       8       1
       1       0       8       1       1       0       8       1       1       0
       8       1       1       0       8       1       1       0       8       1
       1       0       8       1       1       0       8       1       1       0
       8       1       1       0       8       1       1       0       8       1
       1       0       8       1       1       0       8       1       1       0
       8       1       1       0       8       1       1       0       8       1
       1       0       8       1       1       0       8       1       1       0
       8       1       1       0       8       1       1       0       8       1
       1       0       8       1       1       0       8       1       1       0
       8       1       1       0       8       1       1       0       8       1
       1       0       8       1       1       0       8       1       1       0
       8       1       1       0       8       1       1       0       8       1
       1       0       8       1       1       0       8       1       1       0
       8       1       1       0       8       1       1       0       8       1
       1       0       8       1       1       0       8       1       1       0
       8       1       1       0       8       1       1       0       8       1
       1       0       8       1       1       0       8       1       1       0
       8       1       1       0       8       1       1       0       8       1
       1       0       8       1       1       0       8       1       1       0
       8       1       1       0       8       1       1       0       8       1
       1       0       8       1       1       0       8       1       1       0
       8       1       1       0       8       1       1       0       8       1
       1       0       8       1       1       0       8       1       1       0
       8       1       1       0       8       1       1       0       8       1
       1       0       8       1       1       0       8       1       1       0
       8       1       1       0       8       1       1       0       8       1
       1       0       8       1       1       0       8       1       1       0
       8       1       1       0       8       1       1       0       8       1
       1       0       8       1       1       0       8       1       1       0
       8       1       1       0       8       1       1       0       8       1
       1       0       8       1       1       0       8       1       1       0
       8       1       1       0       8       1       1       0       8       1
       1       0       8       1       1       0       8       1       1       0
       8       1       1       0       8       1       1       0       8       1
       1       0       8       1       1       0       8       1       1       0
       8       1       1       0       8       1       1       0       8       1
       1       0       8       1       1       0       8       1       1       0
       8       1       1       0       8       1       1       0       8       1
       1       0       8       1       1       0       8       1       1       0
       8       1       1       0       8       1       1       0       8       1
       1       0       8       1       1       0       8       1       1       0
       8       1       1       0       8       1       1       0       8       1
       1       0       8       1       1       0       8       1       1       0
       8       1       1       0       8       1       1       0       8       1
       1       0       8       1       1       0       8       1       1       0
       8       1       1       0       8       1       1       0       8       1
       1       0       8       1       1       0       8       1       1       0
       8       1       1       0       8       1       1       0       8       1
       1       0       8       1       1       0       8       1       1       0
       8       1       1       0       8       1       1       0       8       1
       1       0       8       1       1       0       8       1       1       0
       8       1       1       0       8       1       1       0       8       1
       1       0       8       1       1       0       8       1       1       0
       8       1       1       0       8       1       1       0       8       1
       1       0       8       1       1       0       8       1       1       0
       8       1       1       0       8       1       1       0       8       1
       1       0       8       1       1       0       8       1       1       0
       8       1       1       0       8       1       1       0       8       1
       1       0       8       1       1       0       8       1       1       0
       8       1       1       0       8       1       1       0       8       1
       1       0       8       1       1       0       8       1       1       0
       8       1       1       0       8       1       1       0       8       1
       1       0       8       1       1       0       8       1       1       0
       8       1       1       0       8       1       1       0       8       1
       1       0       8       1       1       0       8       1       1       0
       8       1       1       0       8       1       1       0       8       1
       1       0       8       1       1       0       8       1       1       0
       8       1       1       0       8       1       1       0       8       1
       1       0       8       1       1       0       8       1       1       0
       8       1       1       0       8       1       1       0       8       1
       1       0       8       1       1       0       8       1       1       0
       8       1       1       0       8       1       1       0       8       1
       1       0       8       1       1       0       8       1       1       0
       8       1       1       0       8       1       1       0       8       1
       1       0       8       1       1       0       8       1       1       0
       8       1       1       0       8       1       1       0       8       1
       1       0       8       1       1       0       8       1       1       0
       8       1       1       0       8       1       1       0       8       1
       1       0       8       1       1       0       8       1       1       0
       8       1       1       0       8       1       1       0       8       1
       1       0       8       1       1       0       8       1       1       0
       8       1       1       0       8       1       1       0       8       1
       1       0       8       1       1       0       8       1       1       0
       8       1       1       0       8       1       1       0       8       1
       1       0       8       1       1       0       8       1       1       0
       8       1       1       0       8       1       1       0       8       1
       1       0       8       1       1       0       8       1       1       0
       8       1       1       0       8       1       1       0       8       1
       1       0       8       1       1       0       8       1       1       0
       8       1       1       0       8       1       1       0       8       1
       1       0       8       1       1       0       8       1       1       0
       8       1       1       0       8       1       1       0       8       1
       1       0       8       1       1       0       8       1       1       0
       8       1       1       0       8       1       1       0       8       1
       1       0       8       1       1       0       8       1       1       0
       8       1       1       0       8       1       1       0       8       1
       1       0       8       1       1       0       8       1       1       0
       8       1       1       0       8       1       1       0       8       1
       1       0       8       1       1       0       8       1       1       0
       8       1       1       0       8       1       1       0       8       1
       1       0       8       1       1       0       8       1       1       0
       8       1       1       0       8       1       1       0       8       1
       1       0       8       1       1       0       8       1       1       0
       8       1       1       0       8       1       1       0       8       1
       1       0       8       1       1       0       8       1       1       0
       8       1       1       0       8       1       1       0       8       1
       1       0       8       1       1       0       8       1       1       0
       8       1       1       0       8       1       1       0       8       1
       1       0       8       1       1       0       8       1       1       0
       8       1       1       0       8       1       1       0       8       1
       1       0       8       1       1       0       8       1       1       0
       8       1       1       0       8       1       1       0       8       1
       1       0       8       1       1       0       8       1       1       0
       8       1       1       0       8       1       1       0       8       1
       1       0       8       1       1       0       8       1       1       0
       8       1       1       0       8       1       1       0       8       1
       1       0       8       1       1       0       8       1       1       0
       8       1       1       0       8       1       1       0       8       1
       1       0       8       1       1       0       8       1       1       0
       8       1       1       0       8       1       1       0       8       1
       1       0       8       1       1       0       8       1       1       0
       8       1       1       0       8       1       1       0       8       1
       1       0       8       1       1       0       8       1       1       0
       8       1       1       0       8       1       1       0       8       1
       1       0       8       1       1       0       8       1       1       0
       8       1       1       0       8       1       1       0       8       1
       1       0       8       1       1       0       8       1       1       0
       8       1       1       0       8       1       1       0       8       1
       1       0       8       1       1       0       8       1       1       0
       8       1       1       0       8       1       1       0       8       1
       1       0       8       1       1       0       8       1       1       0
       8       1       1       0       8       1       1       0       8       1
       1       0       8       1       1       0       8       1       1       0
       8       1       1       0       8       1       1       0       8       1
       1       0       8       1       1       0       8       1       1       0
       8       1       1       0       8       1       1       0       8       1
       1       0       8       1       1       0       8       1       1       0
       8       1       1       0       8       1       1       0       8       1
       1       0       8       1       1       0       8       1       1       0
       8       1       1       0       8       1       1       0       8       1
       1       0       8       1       1       0       8       1       1       0
       8       1       1       0       8       1       1       0       8       1
       1       0       8       1       1       0       8       1       1       0
       8       1       1       0       8       1       1       0       8       1
       1       0       8       1       1       0       8       1       1       0
       8       1       1       0       8       1       1       0       8       1
       1       0       8       1       1       0       8       1       1       0
       8       1       1       0       8       1       1       0       8       1
       1       0       8       1       1       0       8       1       1       0
       8       1       1       0       8       1       1       0       8       1
       1       0       8       1       1       0       8       1       1       0
       8       1       1       0       8       1       1       0       8       1
       1       0       8       1       1       0       8       1       1       0
       8       1       1       0       8       1       1       0       8       1
       1       0       8       1       1       0       8       1       1       0
       8       1       1       0       8       1       1       0       8       1
       1       0       8       1       1       0       8       1       1       0
       8       1       1       0       8       1       1       0       8       1
       1       0       8       1       1       0       8       1       1       0
       8       1       1       0       8       1       1       0       8       1
       1       0       8       1       1       0       8       1       1       0
       8       1       1       0       8       1       1       0       8       1
       1       0       8       1       1       0       8       1       1       0
       8       1       1       0       8       1       1       0       8       1
       1       0       8       1       1       0       8       1       1       0
       8       1       1       0       8       1       1       0       8       1
       1       0       8       1       1       0       8       1       1       0
       8       1       1       0       8       1       1       0       8       1
       1       0       8       1       1       0       8       1       1       0
       8       1       1       0       8       1       1       0       8       1
       1       0       8       1       1       0       8       1       1       0
       8       1       1       0       8       1       1       0       8       1
       1       0       8       1       1       0       8       1       1       0
       8       1       1       0       8       1       1       0       8       1
       1       0       8       1       1       0       8       1       1       0
       8       1       1       0       8       1       1       0       8       1
       1       0       8       1       1       0       8       1       1       0
       8       1       1       0       8       1       1       0       8       1
       1       0       8       1       1       0       8       1       1       0
       8       1       1       0       8       1       1       0       8       1
       1       0       8       1       1       0       8       1       1       0
       8       1       1       0       8       1       1       0       8       1
       1       0       8       1       1       0       8       1       1       0
       8       1       1       0       8       1       1       0       8       1
       1       0       8       1       1       0       8       1       1       0
       8       1       1       0       8       1       1       0       8       1
       1       0       8       1       1       0       8       1       1       0
       8       1       1       0       8       1       1       0       8       1
       1       0       8       1       1       0       8       1       1       0
       8       1       1       0       8       1       1       0       8       1
       1       0       8       1       1       0       8       1       1       0
       8       1       1       0       8       1       1       0       8       1
       1       0       8       1       1       0       8       1       1       0
       8       1       1       0       8       1       1       0       8       1
       1       0       8       1       1       0       8       1       1       0
       8       1       1       0       8       1       1       0       8       1
       1       0       8       1       1       0       8       1       1       0
       8       1       1       0       8       1       1       0       8       1
       1       0       8       1       1       0       8       1       1       0
       8       1       1       0       8       1       1       0       8       1
       1       0       8       1       1       0       8       1       1       0
       8       1       1       0       8       1       1       0       8       1
       1       0       8       1       1       0       8       1       1       0
       8       1       1       0       8       1       1       0       8       1
       1       0       8       1       1       0       8       1       1       0
       8       1       1       0       8       1       1       0       8       1
       1       0       8       1       1       0       8       1       1       0
       8       1       1       0       8       1       1       0       8       1
       1       0       8       1       1       0       8       1       1       0
       8       1       1       0       8       1       1       0       8       1
       1       0       8       1       1       0       8       1       1       0
       8       1       1       0       8       1       1       0       8       1
       1       0       8       1       1       0       8       1       1       0
       8       1       1       0       8       1       1       0       8       1
       1       0       8       1       1       0       8       1       1       0
       8       1       1       0       8       1       1       0       8       1
       1       0       8       1       1       0       8       1       1       0
       8       1       1       0       8       1       1       0       8       1
       1       0       8       1       1       0       8       1       1       0
       8       1       1       0       8       1       1       0       8       1
       1       0       8       1       1       0       8       1       1       0
       8       1       1       0       8       1       1       0       8       1
       1       0       8       1       1       0       8       1       1       0
       8       1       1       0       8       1       1       0       8       1
       1       0       8       1       1       0       8       1       1       0
       8       1       1       0       8       1       1       0       8       1
       1       0       8       1       1       0       8       1       1       0
       8       1       1       0       8       1       1       0       8       1
       1       0       8       1       1       0       8       1       1       0
       8       1       1       0       8       1       1       0       8       1
       1       0       8       1       1       0       8       1       1       0
       8       1       1       0       8       1       1       0       8       1
       1       0       8       1       1       0       8       1       1       0
       8       1       1       0       8       1       1       0       8       1
       1       0       8       1       1       0       8       1       1       0
       8       1       1       0       8       1       1       0       8       1
       1       0       8       1       1       0       8       1       1       0
       8       1       1       0       8       1       1       0       8       1
       1       0       8       1       1       0       8       1       1       0
       8       1       1       0       8       1       1       0       8       1
       1       0       8       1       1       0       8       1       1       0
       8       1       1       0       8       1       1       0       8       1
       1       0       8       1       1       0       8       1       1       0
       8       1       1       0       8       1       1       0       8       1
       1       0       8       1       1       0       8       1       1       0
       8       1       1       0       8       1       1       0       8       1
       1       0       8       1       1       0       8       1       1       0
       8       1       1       0       8       1       1       0       8       1
       1       0       8       1       1       0       8       1       1       0
       8       1       1       0       8       1       1       0       8       1
       1       0       8       1       1       0       8       1       1       0
       8       1       1       0       8       1       1       0       8       1
       1       0       8       1       1       0       8       1       1       0
       8       1       1       0       8       1       1       0       8       1
       1       0
%FLAG MASS                                                                      
%FORMAT(5E16.8)                                                                 
  2.29900000E+01  3.54500000E+01  2.29900000E+01  3.54500000E+01  2.29900000E+01
  3.54500000E+01  2.29900000E+01  3.54500000E+01  2.29900000E+01  3.54500000E+01
  1.60000000E+01  1.20100000E+01  1.40100000E+01  1.20100000E+01  1.40100000E+01
  1.40100000E+01  1.20100000E+01  1.20100000E+01  1.20100000E+01  1.20100000E+01
  1.20100000E+01  1.20100000E+01  1.40100000E+01  1.20100000E+01  1.20100000E+01
  1.40100000E+01  1.20100000E+01  1.40100000E+01  1.00800000E+00  1.00800000E+00
  1.00800000E+00  1.00800000E+00  1.00800000E+00  1.00800000E+00  1.00800000E+00
  1.00800000E+00  1.00800000E+00  1.00800000E+00  1.60000000E+01  1.00800000E+00
  1.00800000E+00  0.00000000E+00  1.60000000E+01  1.00800000E+00  1.00800000E+00
  0.00000000E+00  1.60000000E+01  1.00800000E+00  1.00800000E+00  0.00000000E+00
  1.60000000E+01  1.00800000E+00  1.00800000E+00  0.00000000E+00  1.60000000E+01
  1.00800000E+00  1.00800000E+00  0.00000000E+00  1.60000000E+01  1.00800000E+00
  1.00800000E+00  0.00000000E+00  1.60000000E+01  1.00800000E+00  1.00800000E+00
  0.00000000E+00  1.60000000E+01  1.00800000E+00  1.00800000E+00  0.00000000E+00
  1.60000000E+01  1.00800000E+00  1.00800000E+00  0.00000000E+00  1.60000000E+01
  1.00800000E+00  1.00800000E+00  0.00000000E+00  1.60000000E+01  1.00800000E+00
  1.00800000E+00  0.00000000E+00  1.60000000E+01  1.00800000E+00  1.00800000E+00
  0.00000000E+00  1.60000000E+01  1.00800000E+00  1.00800000E+00  0.00000000E+00
  1.60000000E+01  1.00800000E+00  1.00800000E+00  0.00000000E+00  1.60000000E+01
  1.00800000E+00  1.00800000E+00  0.00000000E+00  1.60000000E+01  1.00800000E+00
  1.00800000E+00  0.00000000E+00  1.60000000E+01  1.00800000E+00  1.00800000E+00
  0.00000000E+00  1.60000000E+01  1.00800000E+00  1.00800000E+00  0.00000000E+00
  1.60000000E+01  1.00800000E+00  1.00800000E+00  0.00000000E+00  1.60000000E+01
  1.00800000E+00  1.00800000E+00  0.00000000E+00  1.60000000E+01  1.00800000E+00
  1.00800000E+00  0.00000000E+00  1.60000000E+01  1.00800000E+00  1.00800000E+00
  0.00000000E+00  1.60000000E+01  1.00800000E+00  1.00800000E+00  0.00000000E+00
  1.60000000E+01  1.00800000E+00  1.00800000E+00  0.00000000E+00  1.60000000E+01
  1.00800000E+00  1.00800000E+00  0.00000000E+00  1.60000000E+01  1.00800000E+00
  1.00800000E+00  0.00000000E+00  1.60000000E+01  1.00800000E+00  1.00800000E+00
  0.00000000E+00  1.60000000E+01  1.00800000E+00  1.00800000E+00  0.00000000E+00
  1.60000000E+01  1.00800000E+00  1.00800000E+00  0.00000000E+00  1.60000000E+01
  1.00800000E+00  1.00800000E+00  0.00000000E+00  1.60000000E+01  1.00800000E+00
  1.00800000E+00  0.00000000E+00  1.60000000E+01  1.00800000E+00  1.00800000E+00
  0.00000000E+00  1.60000000E+01  1.00800000E+00  1.00800000E+00  0.00000000E+00
  1.60000000E+01  1.00800000E+00  1.00800000E+00  0.00000000E+00  1.60000000E+01
  1.00800000E+00  1.00800000E+00  0.00000000E+00  1.60000000E+01  1.00800000E+00
  1.00800000E+00  0.00000000E+00  1.60000000E+01  1.00800000E+00  1.00800000E+00
  0.00000000E+00  1.60000000E+01  1.00800000E+00  1.00800000E+00  0.00000000E+00
  1.60000000E+01  1.00800000E+00  1.00800000E+00  0.00000000E+00  1.60000000E+01
  1.00800000E+00  1.00800000E+00  0.00000000E+00  1.60000000E+01  1.00800000E+00
  1.00800000E+00  0.00000000E+00  1.60000000E+01  1.00800000E+00  1.00800000E+00
  0.00000000E+00  1.60000000E+01  1.00800000E+00  1.00800000E+00  0.00000000E+00
  1.60000000E+01  1.00800000E+00  1.00800000E+00  0.00000000E+00  1.60000000E+01
  1.00800000E+00  1.00800000E+00  0.00000000E+00  1.60000000E+01  1.00800000E+00
  1.00800000E+00  0.00000000E+00  1.60000000E+01  1.00800000E+00  1.00800000E+00
  0.00000000E+00  1.60000000E+01  1.00800000E+00  1.00800000E+00  0.00000000E+00
  1.60000000E+01  1.00800000E+00  1.00800000E+00  0.00000000E+00  1.60000000E+01
  1.00800000E+00  1.00800000E+00  0.00000000E+00  1.60000000E+01  1.00800000E+00
  1.00800000E+00  0.00000000E+00  1.60000000E+01  1.00800000E+00  1.00800000E+00
  0.00000000E+00  1.60000000E+01  1.00800000E+00  1.00800000E+00  0.00000000E+00
  1.60000000E+01  1.00800000E+00  1.00800000E+00  0.00000000E+00  1.60000000E+01
  1.00800000E+00  1.00800000E+00  0.00000000E+00  1.60000000E+01  1.00800000E+00
  1.00800000E+00  0.00000000E+00  1.60000000E+01  1.00800000E+00  1.00800000E+00
  0.00000000E+00  1.60000000E+01  1.00800000E+00  1.00800000E+00  0.00000000E+00
  1.60000000E+01  1.00800000E+00  1.00800000E+00  0.00000000E+00  1.60000000E+01
  1.00800000E+00  1.00800000E+00  0.00000000E+00  1.60000000E+01  1.00800000E+00
  1.00800000E+00  0.00000000E+00  1.60000000E+01  1.00800000E+00  1.00800000E+00
  0.00000000E+00  1.60000000E+01  1.00800000E+00  1.00800000E+00  0.00000000E+00
  1.60000000E+01  1.00800000E+00  1.00800000E+00  0.00000000E+00  1.60000000E+01
  1.00800000E+00  1.00800000E+00  0.00000000E+00  1.60000000E+01  1.00800000E+00
  1.00800000E+00  0.00000000E+00  1.60000000E+01  1.00800000E+00  1.00800000E+00
  0.00000000E+00  1.60000000E+01  1.00800000E+00  1.00800000E+00  0.00000000E+00
  1.60000000E+01  1.00800000E+00  1.00800000E+00  0.00000000E+00  1.60000000E+01
  1.00800000E+00  1.00800000E+00  0.00000000E+00  1.60000000E+01  1.00800000E+00
  1.00800000E+00  0.00000000E+00  1.60000000E+01  1.00800000E+00  1.00800000E+00
  0.00000000E+00  1.60000000E+01  1.00800000E+00  1.00800000E+00  0.00000000E+00
  1.60000000E+01  1.00800000E+00  1.00800000E+00  0.00000000E+00  1.60000000E+01
  1.00800000E+00  1.00800000E+00  0.00000000E+00  1.60000000E+01  1.00800000E+00
  1.00800000E+00  0.00000000E+00  1.60000000E+01  1.00800000E+00  1.00800000E+00
  0.00000000E+00  1.60000000E+01  1.00800000E+00  1.00800000E+00  0.00000000E+00
  1.60000000E+01  1.00800000E+00  1.00800000E+00  0.00000000E+00  1.60000000E+01
  1.00800000E+00  1.00800000E+00  0.00000000E+00  1.60000000E+01  1.00800000E+00
  1.00800000E+00  0.00000000E+00  1.60000000E+01  1.00800000E+00  1.00800000E+00
  0.00000000E+00  1.60000000E+01  1.00800000E+00  1.00800000E+00  0.00000000E+00
  1.60000000E+01  1.00800000E+00  1.00800000E+00  0.00000000E+00  1.60000000E+01
  1.00800000E+00  1.00800000E+00  0.00000000E+00  1.60000000E+01  1.00800000E+00
  1.00800000E+00  0.00000000E+00  1.60000000E+01  1.00800000E+00  1.00800000E+00
  0.00000000E+00  1.60000000E+01  1.00800000E+00  1.00800000E+00  0.00000000E+00
  1.60000000E+01  1.00800000E+00  1.00800000E+00  0.00000000E+00  1.60000000E+01
  1.00800000E+00  1.00800000E+00  0.00000000E+00  1.60000000E+01  1.00800000E+00
  1.00800000E+00  0.00000000E+00  1.60000000E+01  1.00800000E+00  1.00800000E+00
  0.00000000E+00  1.60000000E+01  1.00800000E+00  1.00800000E+00  0.00000000E+00
  1.60000000E+01  1.00800000E+00  1.00800000E+00  0.00000000E+00  1.60000000E+01
  1.00800000E+00  1.00800000E+00  0.00000000E+00  1.60000000E+01  1.00800000E+00
  1.00800000E+00  0.00000000E+00  1.60000000E+01  1.00800000E+00  1.00800000E+00
  0.00000000E+00  1.60000000E+01  1.00800000E+00  1.00800000E+00  0.00000000E+00
  1.60000000E+01  1.00800000E+00  1.00800000E+00  0.00000000E+00  1.60000000E+01
  1.00800000E+00  1.00800000E+00  0.00000000E+00  1.60000000E+01  1.00800000E+00
  1.00800000E+00  0.00000000E+00  1.60000000E+01  1.00800000E+00  1.00800000E+00
  0.00000000E+00  1.60000000E+01  1.00800000E+00  1.00800000E+00  0.00000000E+00
  1.60000000E+01  1.00800000E+00  1.00800000E+00  0.00000000E+00  1.60000000E+01
  1.00800000E+00  1.00800000E+00  0.00000000E+00  1.60000000E+01  1.00800000E+00
  1.00800000E+00  0.00000000E+00  1.60000000E+01  1.00800000E+00  1.00800000E+00
  0.00000000E+00  1.60000000E+01  1.00800000E+00  1.00800000E+00  0.00000000E+00
  1.60000000E+01  1.00800000E+00  1.00800000E+00  0.00000000E+00  1.60000000E+01
  1.00800000E+00  1.00800000E+00  0.00000000E+00  1.60000000E+01  1.00800000E+00
  1.00800000E+00  0.00000000E+00  1.60000000E+01  1.00800000E+00  1.00800000E+00
  0.00000000E+00  1.60000000E+01  1.00800000E+00  1.00800000E+00  0.00000000E+00
  1.60000000E+01  1.00800000E+00  1.00800000E+00  0.00000000E+00  1.60000000E+01
  1.00800000E+00  1.00800000E+00  0.00000000E+00  1.60000000E+01  1.00800000E+00
  1.00800000E+00  0.00000000E+00  1.60000000E+01  1.00800000E+00  1.00800000E+00
  0.00000000E+00  1.60000000E+01  1.00800000E+00  1.00800000E+00  0.00000000E+00
  1.60000000E+01  1.00800000E+00  1.00800000E+00  0.00000000E+00  1.60000000E+01
  1.00800000E+00  1.00800000E+00  0.00000000E+00  1.60000000E+01  1.00800000E+00
  1.00800000E+00  0.00000000E+00  1.60000000E+01  1.00800000E+00  1.00800000E+00
  0.00000000E+00  1.60000000E+01  1.00800000E+00  1.00800000E+00  0.00000000E+00
  1.60000000E+01  1.00800000E+00  1.00800000E+00  0.00000000E+00  1.60000000E+01
  1.00800000E+00  1.00800000E+00  0.00000000E+00  1.60000000E+01  1.00800000E+00
  1.00800000E+00  0.00000000E+00  1.60000000E+01  1.00800000E+00  1.00800000E+00
  0.00000000E+00  1.60000000E+01  1.00800000E+00  1.00800000E+00  0.00000000E+00
  1.60000000E+01  1.00800000E+00  1.00800000E+00  0.00000000E+00  1.60000000E+01
  1.00800000E+00  1.00800000E+00  0.00000000E+00  1.60000000E+01  1.00800000E+00
  1.00800000E+00  0.00000000E+00  1.60000000E+01  1.00800000E+00  1.00800000E+00
  0.00000000E+00  1.60000000E+01  1.00800000E+00  1.00800000E+00  0.00000000E+00
  1.60000000E+01  1.00800000E+00  1.00800000E+00  0.00000000E+00  1.60000000E+01
  1.00800000E+00  1.00800000E+00  0.00000000E+00  1.60000000E+01  1.00800000E+00
  1.00800000E+00  0.00000000E+00  1.60000000E+01  1.00800000E+00  1.00800000E+00
  0.00000000E+00  1.60000000E+01  1.00800000E+00  1.00800000E+00  0.00000000E+00
  1.60000000E+01  1.00800000E+00  1.00800000E+00  0.00000000E+00  1.60000000E+01
  1.00800000E+00  1.00800000E+00  0.00000000E+00  1.60000000E+01  1.00800000E+00
  1.00800000E+00  0.00000000E+00  1.60000000E+01  1.00800000E+00  1.00800000E+00
  0.00000000E+00  1.60000000E+01  1.00800000E+00  1.00800000E+00  0.00000000E+00
  1.60000000E+01  1.00800000E+00  1.00800000E+00  0.00000000E+00  1.60000000E+01
  1.00800000E+00  1.00800000E+00  0.00000000E+00  1.60000000E+01  1.00800000E+00
  1.00800000E+00  0.00000000E+00  1.60000000E+01  1.00800000E+00  1.00800000E+00
  0.00000000E+00  1.60000000E+01  1.00800000E+00  1.00800000E+00  0.00000000E+00
  1.60000000E+01  1.00800000E+00  1.00800000E+00  0.00000000E+00  1.60000000E+01
  1.00800000E+00  1.00800000E+00  0.00000000E+00  1.60000000E+01  1.00800000E+00
  1.00800000E+00  0.00000000E+00  1.60000000E+01  1.00800000E+00  1.00800000E+00
  0.00000000E+00  1.60000000E+01  1.00800000E+00  1.00800000E+00  0.00000000E+00
  1.60000000E+01  1.00800000E+00  1.00800000E+00  0.00000000E+00  1.60000000E+01
  1.00800000E+00  1.00800000E+00  0.00000000E+00  1.60000000E+01  1.00800000E+00
  1.00800000E+00  0.00000000E+00  1.60000000E+01  1.00800000E+00  1.00800000E+00
  0.00000000E+00  1.60000000E+01  1.00800000E+00  1.00800000E+00  0.00000000E+00
  1.60000000E+01  1.00800000E+00  1.00800000E+00  0.00000000E+00  1.60000000E+01
  1.00800000E+00  1.00800000E+00  0.00000000E+00  1.60000000E+01  1.00800000E+00
  1.00800000E+00  0.00000000E+00  1.60000000E+01  1.00800000E+00  1.00800000E+00
  0.00000000E+00  1.60000000E+01  1.00800000E+00  1.00800000E+00  0.00000000E+00
  1.60000000E+01  1.00800000E+00  1.00800000E+00  0.00000000E+00  1.60000000E+01
  1.00800000E+00  1.00800000E+00  0.00000000E+00  1.60000000E+01  1.00800000E+00
  1.00800000E+00  0.00000000E+00  1.60000000E+01  1.00800000E+00  1.00800000E+00
  0.00000000E+00  1.60000000E+01  1.00800000E+00  1.00800000E+00  0.00000000E+00
  1.60000000E+01  1.00800000E+00  1.00800000E+00  0.00000000E+00  1.60000000E+01
  1.00800000E+00  1.00800000E+00  0.00000000E+00  1.60000000E+01  1.00800000E+00
  1.00800000E+00  0.00000000E+00  1.60000000E+01  1.00800000E+00  1.00800000E+00
  0.00000000E+00  1.60000000E+01  1.00800000E+00  1.00800000E+00  0.00000000E+00
  1.60000000E+01  1.00800000E+00  1.00800000E+00  0.00000000E+00  1.60000000E+01
  1.00800000E+00  1.00800000E+00  0.00000000E+00  1.60000000E+01  1.00800000E+00
  1.00800000E+00  0.00000000E+00  1.60000000E+01  1.00800000E+00  1.00800000E+00
  0.00000000E+00  1.60000000E+01  1.00800000E+00  1.00800000E+00  0.00000000E+00
  1.60000000E+01  1.00800000E+00  1.00800000E+00  0.00000000E+00  1.60000000E+01
  1.00800000E+00  1.00800000E+00  0.00000000E+00  1.60000000E+01  1.00800000E+00
  1.00800000E+00  0.00000000E+00  1.60000000E+01  1.00800000E+00  1.00800000E+00
  0.00000000E+00  1.60000000E+01  1.00800000E+00  1.00800000E+00  0.00000000E+00
  1.60000000E+01  1.00800000E+00  1.00800000E+00  0.00000000E+00  1.60000000E+01
  1.00800000E+00  1.00800000E+00  0.00000000E+00  1.60000000E+01  1.00800000E+00
  1.00800000E+00  0.00000000E+00  1.60000000E+01  1.00800000E+00  1.00800000E+00
  0.00000000E+00  1.60000000E+01  1.00800000E+00  1.00800000E+00  0.00000000E+00
  1.60000000E+01  1.00800000E+00  1.00800000E+00  0.00000000E+00  1.60000000E+01
  1.00800000E+00  1.00800000E+00  0.00000000E+00  1.60000000E+01  1.00800000E+00
  1.00800000E+00  0.00000000E+00  1.60000000E+01  1.00800000E+00  1.00800000E+00
  0.00000000E+00  1.60000000E+01  1.00800000E+00  1.00800000E+00  0.00000000E+00
  1.60000000E+01  1.00800000E+00  1.00800000E+00  0.00000000E+00  1.60000000E+01
  1.00800000E+00  1.00800000E+00  0.00000000E+00  1.60000000E+01  1.00800000E+00
  1.00800000E+00  0.00000000E+00  1.60000000E+01  1.00800000E+00  1.00800000E+00
  0.00000000E+00  1.60000000E+01  1.00800000E+00  1.00800000E+00  0.00000000E+00
  1.60000000E+01  1.00800000E+00  1.00800000E+00  0.00000000E+00  1.60000000E+01
  1.00800000E+00  1.00800000E+00  0.00000000E+00  1.60000000E+01  1.00800000E+00
  1.00800000E+00  0.00000000E+00  1.60000000E+01  1.00800000E+00  1.00800000E+00
  0.00000000E+00  1.60000000E+01  1.00800000E+00  1.00800000E+00  0.00000000E+00
  1.60000000E+01  1.00800000E+00  1.00800000E+00  0.00000000E+00  1.60000000E+01
  1.00800000E+00  1.00800000E+00  0.00000000E+00  1.60000000E+01  1.00800000E+00
  1.00800000E+00  0.00000000E+00  1.60000000E+01  1.00800000E+00  1.00800000E+00
  0.00000000E+00  1.60000000E+01  1.00800000E+00  1.00800000E+00  0.00000000E+00
  1.60000000E+01  1.00800000E+00  1.00800000E+00  0.00000000E+00  1.60000000E+01
  1.00800000E+00  1.00800000E+00  0.00000000E+00  1.60000000E+01  1.00800000E+00
  1.00800000E+00  0.00000000E+00  1.60000000E+01  1.00800000E+00  1.00800000E+00
  0.00000000E+00  1.60000000E+01  1.00800000E+00  1.00800000E+00  0.00000000E+00
  1.60000000E+01  1.00800000E+00  1.00800000E+00  0.00000000E+00  1.60000000E+01
  1.00800000E+00  1.00800000E+00  0.00000000E+00  1.60000000E+01  1.00800000E+00
  1.00800000E+00  0.00000000E+00  1.60000000E+01  1.00800000E+00  1.00800000E+00
  0.00000000E+00  1.60000000E+01  1.00800000E+00  1.00800000E+00  0.00000000E+00
  1.60000000E+01  1.00800000E+00  1.00800000E+00  0.00000000E+00  1.60000000E+01
  1.00800000E+00  1.00800000E+00  0.00000000E+00  1.60000000E+01  1.00800000E+00
  1.00800000E+00  0.00000000E+00  1.60000000E+01  1.00800000E+00  1.00800000E+00
  0.00000000E+00  1.60000000E+01  1.00800000E+00  1.00800000E+00  0.00000000E+00
  1.60000000E+01  1.00800000E+00  1.00800000E+00  0.00000000E+00  1.60000000E+01
  1.00800000E+00  1.00800000E+00  0.00000000E+00  1.60000000E+01  1.00800000E+00
  1.00800000E+00  0.00000000E+00  1.60000000E+01  1.00800000E+00  1.00800000E+00
  0.00000000E+00  1.60000000E+01  1.00800000E+00  1.00800000E+00  0.00000000E+00
  1.60000000E+01  1.00800000E+00  1.00800000E+00  0.00000000E+00  1.60000000E+01
  1.00800000E+00  1.00800000E+00  0.00000000E+00  1.60000000E+01  1.00800000E+00
  1.00800000E+00  0.00000000E+00  1.60000000E+01  1.00800000E+00  1.00800000E+00
  0.00000000E+00  1.60000000E+01  1.00800000E+00  1.00800000E+00  0.00000000E+00
  1.60000000E+01  1.00800000E+00  1.00800000E+00  0.00000000E+00  1.60000000E+01
  1.00800000E+00  1.00800000E+00  0.00000000E+00  1.60000000E+01  1.00800000E+00
  1.00800000E+00  0.00000000E+00  1.60000000E+01  1.00800000E+00  1.00800000E+00
  0.00000000E+00  1.60000000E+01  1.00800000E+00  1.00800000E+00  0.00000000E+00
  1.60000000E+01  1.00800000E+00  1.00800000E+00  0.00000000E+00  1.60000000E+01
  1.00800000E+00  1.00800000E+00  0.00000000E+00  1.60000000E+01  1.00800000E+00
  1.00800000E+00  0.00000000E+00  1.60000000E+01  1.00800000E+00  1.00800000E+00
  0.00000000E+00  1.60000000E+01  1.00800000E+00  1.00800000E+00  0.00000000E+00
  1.60000000E+01  1.00800000E+00  1.00800000E+00  0.00000000E+00  1.60000000E+01
  1.00800000E+00  1.00800000E+00  0.00000000E+00  1.60000000E+01  1.00800000E+00
  1.00800000E+00  0.00000000E+00  1.60000000E+01  1.00800000E+00  1.00800000E+00
  0.00000000E+00  1.60000000E+01  1.00800000E+00  1.00800000E+00  0.00000000E+00
  1.60000000E+01  1.00800000E+00  1.00800000E+00  0.00000000E+00  1.60000000E+01
  1.00800000E+00  1.00800000E+00  0.00000000E+00  1.60000000E+01  1.00800000E+00
  1.00800000E+00  0.00000000E+00  1.60000000E+01  1.00800000E+00  1.00800000E+00
  0.00000000E+00  1.60000000E+01  1.00800000E+00  1.00800000E+00  0.00000000E+00
  1.60000000E+01  1.00800000E+00  1.00800000E+00  0.00000000E+00  1.60000000E+01
  1.00800000E+00  1.00800000E+00  0.00000000E+00  1.60000000E+01  1.00800000E+00
  1.00800000E+00  0.00000000E+00  1.60000000E+01  1.00800000E+00  1.00800000E+00
  0.00000000E+00  1.60000000E+01  1.00800000E+00  1.00800000E+00  0.00000000E+00
  1.60000000E+01  1.00800000E+00  1.00800000E+00  0.00000000E+00  1.60000000E+01
  1.00800000E+00  1.00800000E+00  0.00000000E+00  1.60000000E+01  1.00800000E+00
  1.00800000E+00  0.00000000E+00  1.60000000E+01  1.00800000E+00  1.00800000E+00
  0.00000000E+00  1.60000000E+01  1.00800000E+00  1.00800000E+00  0.00000000E+00
  1.60000000E+01  1.00800000E+00  1.00800000E+00  0.00000000E+00  1.60000000E+01
  1.00800000E+00  1.00800000E+00  0.00000000E+00  1.60000000E+01  1.00800000E+00
  1.00800000E+00  0.00000000E+00  1.60000000E+01  1.00800000E+00  1.00800000E+00
  0.00000000E+00  1.60000000E+01  1.00800000E+00  1.00800000E+00  0.00000000E+00
  1.60000000E+01  1.00800000E+00  1.00800000E+00  0.00000000E+00  1.60000000E+01
  1.00800000E+00  1.00800000E+00  0.00000000E+00  1.60000000E+01  1.00800000E+00
  1.00800000E+00  0.00000000E+00  1.60000000E+01  1.00800000E+00  1.00800000E+00
  0.00000000E+00  1.60000000E+01  1.00800000E+00  1.00800000E+00  0.00000000E+00
  1.60000000E+01  1.00800000E+00  1.00800000E+00  0.00000000E+00  1.60000000E+01
  1.00800000E+00  1.00800000E+00  0.00000000E+00  1.60000000E+01  1.00800000E+00
  1.00800000E+00  0.00000000E+00  1.60000000E+01  1.00800000E+00  1.00800000E+00
  0.00000000E+00  1.60000000E+01  1.00800000E+00  1.00800000E+00  0.00000000E+00
  1.60000000E+01  1.00800000E+00  1.00800000E+00  0.00000000E+00  1.60000000E+01
  1.00800000E+00  1.00800000E+00  0.00000000E+00  1.60000000E+01  1.00800000E+00
  1.00800000E+00  0.00000000E+00  1.60000000E+01  1.00800000E+00  1.00800000E+00
  0.00000000E+00  1.60000000E+01  1.00800000E+00  1.00800000E+00  0.00000000E+00
  1.60000000E+01  1.00800000E+00  1.00800000E+00  0.00000000E+00  1.60000000E+01
  1.00800000E+00  1.00800000E+00  0.00000000E+00  1.60000000E+01  1.00800000E+00
  1.00800000E+00  0.00000000E+00  1.60000000E+01  1.00800000E+00  1.00800000E+00
  0.00000000E+00  1.60000000E+01  1.00800000E+00  1.00800000E+00  0.00000000E+00
  1.60000000E+01  1.00800000E+00  1.00800000E+00  0.00000000E+00  1.60000000E+01
  1.00800000E+00  1.00800000E+00  0.00000000E+00  1.60000000E+01  1.00800000E+00
  1.00800000E+00  0.00000000E+00  1.60000000E+01  1.00800000E+00  1.00800000E+00
  0.00000000E+00  1.60000000E+01  1.00800000E+00  1.00800000E+00  0.00000000E+00
  1.60000000E+01  1.00800000E+00  1.00800000E+00  0.00000000E+00  1.60000000E+01
  1.00800000E+00  1.00800000E+00  0.00000000E+00  1.60000000E+01  1.00800000E+00
  1.00800000E+00  0.00000000E+00  1.60000000E+01  1.00800000E+00  1.00800000E+00
  0.00000000E+00  1.60000000E+01  1.00800000E+00  1.00800000E+00  0.00000000E+00
  1.60000000E+01  1.00800000E+00  1.00800000E+00  0.00000000E+00  1.60000000E+01
  1.00800000E+00  1.00800000E+00  0.00000000E+00  1.60000000E+01  1.00800000E+00
  1.00800000E+00  0.00000000E+00  1.60000000E+01  1.00800000E+00  1.00800000E+00
  0.00000000E+00  1.60000000E+01  1.00800000E+00  1.00800000E+00  0.00000000E+00
  1.60000000E+01  1.00800000E+00  1.00800000E+00  0.00000000E+00  1.60000000E+01
  1.00800000E+00  1.00800000E+00  0.00000000E+00  1.60000000E+01  1.00800000E+00
  1.00800000E+00  0.00000000E+00  1.60000000E+01  1.00800000E+00  1.00800000E+00
  0.00000000E+00  1.60000000E+01  1.00800000E+00  1.00800000E+00  0.00000000E+00
  1.60000000E+01  1.00800000E+00  1.00800000E+00  0.00000000E+00  1.60000000E+01
  1.00800000E+00  1.00800000E+00  0.00000000E+00  1.60000000E+01  1.00800000E+00
  1.00800000E+00  0.00000000E+00  1.60000000E+01  1.00800000E+00  1.00800000E+00
  0.00000000E+00  1.60000000E+01  1.00800000E+00  1.00800000E+00  0.00000000E+00
  1.60000000E+01  1.00800000E+00  1.00800000E+00  0.00000000E+00  1.60000000E+01
  1.00800000E+00  1.00800000E+00  0.00000000E+00  1.60000000E+01  1.00800000E+00
  1.00800000E+00  0.00000000E+00  1.60000000E+01  1.00800000E+00  1.00800000E+00
  0.00000000E+00  1.60000000E+01  1.00800000E+00  1.00800000E+00  0.00000000E+00
  1.60000000E+01  1.00800000E+00  1.00800000E+00  0.00000000E+00  1.60000000E+01
  1.00800000E+00  1.00800000E+00  0.00000000E+00  1.60000000E+01  1.00800000E+00
  1.00800000E+00  0.00000000E+00  1.60000000E+01  1.00800000E+00  1.00800000E+00
  0.00000000E+00  1.60000000E+01  1.00800000E+00  1.00800000E+00  0.00000000E+00
  1.60000000E+01  1.00800000E+00  1.00800000E+00  0.00000000E+00  1.60000000E+01
  1.00800000E+00  1.00800000E+00  0.00000000E+00  1.60000000E+01  1.00800000E+00
  1.00800000E+00  0.00000000E+00  1.60000000E+01  1.00800000E+00  1.00800000E+00
  0.00000000E+00  1.60000000E+01  1.00800000E+00  1.00800000E+00  0.00000000E+00
  1.60000000E+01  1.00800000E+00  1.00800000E+00  0.00000000E+00  1.60000000E+01
  1.00800000E+00  1.00800000E+00  0.00000000E+00  1.60000000E+01  1.00800000E+00
  1.00800000E+00  0.00000000E+00  1.60000000E+01  1.00800000E+00  1.00800000E+00
  0.00000000E+00  1.60000000E+01  1.00800000E+00  1.00800000E+00  0.00000000E+00
  1.60000000E+01  1.00800000E+00  1.00800000E+00  0.00000000E+00  1.60000000E+01
  1.00800000E+00  1.00800000E+00  0.00000000E+00  1.60000000E+01  1.00800000E+00
  1.00800000E+00  0.00000000E+00  1.60000000E+01  1.00800000E+00  1.00800000E+00
  0.00000000E+00  1.60000000E+01  1.00800000E+00  1.00800000E+00  0.00000000E+00
  1.60000000E+01  1.00800000E+00  1.00800000E+00  0.00000000E+00  1.60000000E+01
  1.00800000E+00  1.00800000E+00  0.00000000E+00  1.60000000E+01  1.00800000E+00
  1.00800000E+00  0.00000000E+00  1.60000000E+01  1.00800000E+00  1.00800000E+00
  0.00000000E+00  1.60000000E+01  1.00800000E+00  1.00800000E+00  0.00000000E+00
  1.60000000E+01  1.00800000E+00  1.00800000E+00  0.00000000E+00  1.60000000E+01
  1.00800000E+00  1.00800000E+00  0.00000000E+00  1.60000000E+01  1.00800000E+00
  1.00800000E+00  0.00000000E+00  1.60000000E+01  1.00800000E+00  1.00800000E+00
  0.00000000E+00  1.60000000E+01  1.00800000E+00  1.00800000E+00  0.00000000E+00
  1.60000000E+01  1.00800000E+00  1.00800000E+00  0.00000000E+00  1.60000000E+01
  1.00800000E+00  1.00800000E+00  0.00000000E+00  1.60000000E+01  1.00800000E+00
  1.00800000E+00  0.00000000E+00  1.60000000E+01  1.00800000E+00  1.00800000E+00
  0.00000000E+00  1.60000000E+01  1.00800000E+00  1.00800000E+00  0.00000000E+00
  1.60000000E+01  1.00800000E+00  1.00800000E+00  0.00000000E+00  1.60000000E+01
  1.00800000E+00  1.00800000E+00  0.00000000E+00  1.60000000E+01  1.00800000E+00
  1.00800000E+00  0.00000000E+00  1.60000000E+01  1.00800000E+00  1.00800000E+00
  0.00000000E+00  1.60000000E+01  1.00800000E+00  1.00800000E+00  0.00000000E+00
  1.60000000E+01  1.00800000E+00  1.00800000E+00  0.00000000E+00  1.60000000E+01
  1.00800000E+00  1.00800000E+00  0.00000000E+00  1.60000000E+01  1.00800000E+00
  1.00800000E+00  0.00000000E+00  1.60000000E+01  1.00800000E+00  1.00800000E+00
  0.00000000E+00  1.60000000E+01  1.00800000E+00  1.00800000E+00  0.00000000E+00
  1.60000000E+01  1.00800000E+00  1.00800000E+00  0.00000000E+00  1.60000000E+01
  1.00800000E+00  1.00800000E+00  0.00000000E+00  1.60000000E+01  1.00800000E+00
  1.00800000E+00  0.00000000E+00  1.60000000E+01  1.00800000E+00  1.00800000E+00
  0.00000000E+00  1.60000000E+01  1.00800000E+00  1.00800000E+00  0.00000000E+00
  1.60000000E+01  1.00800000E+00  1.00800000E+00  0.00000000E+00  1.60000000E+01
  1.00800000E+00  1.00800000E+00  0.00000000E+00  1.60000000E+01  1.00800000E+00
  1.00800000E+00  0.00000000E+00  1.60000000E+01  1.00800000E+00  1.00800000E+00
  0.00000000E+00  1.60000000E+01  1.00800000E+00  1.00800000E+00  0.00000000E+00
  1.60000000E+01  1.00800000E+00  1.00800000E+00  0.00000000E+00  1.60000000E+01
  1.00800000E+00  1.00800000E+00  0.00000000E+00  1.60000000E+01  1.00800000E+00
  1.00800000E+00  0.00000000E+00  1.60000000E+01  1.00800000E+00  1.00800000E+00
  0.00000000E+00  1.60000000E+01  1.00800000E+00  1.00800000E+00  0.00000000E+00
  1.60000000E+01  1.00800000E+00  1.00800000E+00  0.00000000E+00  1.60000000E+01
  1.00800000E+00  1.00800000E+00  0.00000000E+00  1.60000000E+01  1.00800000E+00
  1.00800000E+00  0.00000000E+00  1.60000000E+01  1.00800000E+00  1.00800000E+00
  0.00000000E+00  1.60000000E+01  1.00800000E+00  1.00800000E+00  0.00000000E+00
  1.60000000E+01  1.00800000E+00  1.00800000E+00  0.00000000E+00  1.60000000E+01
  1.00800000E+00  1.00800000E+00  0.00000000E+00  1.60000000E+01  1.00800000E+00
  1.00800000E+00  0.00000000E+00  1.60000000E+01  1.00800000E+00  1.00800000E+00
  0.00000000E+00  1.60000000E+01  1.00800000E+00  1.00800000E+00  0.00000000E+00
  1.60000000E+01  1.00800000E+00  1.00800000E+00  0.00000000E+00  1.60000000E+01
  1.00800000E+00  1.00800000E+00  0.00000000E+00  1.60000000E+01  1.00800000E+00
  1.00800000E+00  0.00000000E+00  1.60000000E+01  1.00800000E+00  1.00800000E+00
  0.00000000E+00  1.60000000E+01  1.00800000E+00  1.00800000E+00  0.00000000E+00
  1.60000000E+01  1.00800000E+00  1.00800000E+00  0.00000000E+00  1.60000000E+01
  1.00800000E+00  1.00800000E+00  0.00000000E+00  1.60000000E+01  1.00800000E+00
  1.00800000E+00  0.00000000E+00  1.60000000E+01  1.00800000E+00  1.00800000E+00
  0.00000000E+00  1.60000000E+01  1.00800000E+00  1.00800000E+00  0.00000000E+00
  1.60000000E+01  1.00800000E+00  1.00800000E+00  0.00000000E+00  1.60000000E+01
  1.00800000E+00  1.00800000E+00  0.00000000E+00  1.60000000E+01  1.00800000E+00
  1.00800000E+00  0.00000000E+00  1.60000000E+01  1.00800000E+00  1.00800000E+00
  0.00000000E+00  1.60000000E+01  1.00800000E+00  1.00800000E+00  0.00000000E+00
  1.60000000E+01  1.00800000E+00  1.00800000E+00  0.00000000E+00  1.60000000E+01
  1.00800000E+00  1.00800000E+00  0.00000000E+00  1.60000000E+01  1.00800000E+00
  1.00800000E+00  0.00000000E+00  1.60000000E+01  1.00800000E+00  1.00800000E+00
  0.00000000E+00  1.60000000E+01  1.00800000E+00  1.00800000E+00  0.00000000E+00
  1.60000000E+01  1.00800000E+00  1.00800000E+00  0.00000000E+00  1.60000000E+01
  1.00800000E+00  1.00800000E+00  0.00000000E+00  1.60000000E+01  1.00800000E+00
  1.00800000E+00  0.00000000E+00  1.60000000E+01  1.00800000E+00  1.00800000E+00
  0.00000000E+00  1.60000000E+01  1.00800000E+00  1.00800000E+00  0.00000000E+00
  1.60000000E+01  1.00800000E+00  1.00800000E+00  0.00000000E+00  1.60000000E+01
  1.00800000E+00  1.00800000E+00  0.00000000E+00  1.60000000E+01  1.00800000E+00
  1.00800000E+00  0.00000000E+00  1.60000000E+01  1.00800000E+00  1.00800000E+00
  0.00000000E+00  1.60000000E+01  1.00800000E+00  1.00800000E+00  0.00000000E+00
  1.60000000E+01  1.00800000E+00  1.00800000E+00  0.00000000E+00  1.60000000E+01
  1.00800000E+00  1.00800000E+00  0.00000000E+00  1.60000000E+01  1.00800000E+00
  1.00800000E+00  0.00000000E+00  1.60000000E+01  1.00800000E+00  1.00800000E+00
  0.00000000E+00  1.60000000E+01  1.00800000E+00  1.00800000E+00  0.00000000E+00
  1.60000000E+01  1.00800000E+00  1.00800000E+00  0.00000000E+00  1.60000000E+01
  1.00800000E+00  1.00800000E+00  0.00000000E+00  1.60000000E+01  1.00800000E+00
  1.00800000E+00  0.00000000E+00  1.60000000E+01  1.00800000E+00  1.00800000E+00
  0.00000000E+00  1.60000000E+01  1.00800000E+00  1.00800000E+00  0.00000000E+00
  1.60000000E+01  1.00800000E+00  1.00800000E+00  0.00000000E+00  1.60000000E+01
  1.00800000E+00  1.00800000E+00  0.00000000E+00  1.60000000E+01  1.00800000E+00
  1.00800000E+00  0.00000000E+00  1.60000000E+01  1.00800000E+00  1.00800000E+00
  0.00000000E+00  1.60000000E+01  1.00800000E+00  1.00800000E+00  0.00000000E+00
  1.60000000E+01  1.00800000E+00  1.00800000E+00  0.00000000E+00  1.60000000E+01
  1.00800000E+00  1.00800000E+00  0.00000000E+00  1.60000000E+01  1.00800000E+00
  1.00800000E+00  0.00000000E+00  1.60000000E+01  1.00800000E+00  1.00800000E+00
  0.00000000E+00  1.60000000E+01  1.00800000E+00  1.00800000E+00  0.00000000E+00
  1.60000000E+01  1.00800000E+00  1.00800000E+00  0.00000000E+00  1.60000000E+01
  1.00800000E+00  1.00800000E+00  0.00000000E+00  1.60000000E+01  1.00800000E+00
  1.00800000E+00  0.00000000E+00  1.60000000E+01  1.00800000E+00  1.00800000E+00
  0.00000000E+00  1.60000000E+01  1.00800000E+00  1.00800000E+00  0.00000000E+00
  1.60000000E+01  1.00800000E+00  1.00800000E+00  0.00000000E+00  1.60000000E+01
  1.00800000E+00  1.00800000E+00  0.00000000E+00  1.60000000E+01  1.00800000E+00
  1.00800000E+00  0.00000000E+00  1.60000000E+01  1.00800000E+00  1.00800000E+00
  0.00000000E+00  1.60000000E+01  1.00800000E+00  1.00800000E+00  0.00000000E+00
  1.60000000E+01  1.00800000E+00  1.00800000E+00  0.00000000E+00  1.60000000E+01
  1.00800000E+00  1.00800000E+00  0.00000000E+00  1.60000000E+01  1.00800000E+00
  1.00800000E+00  0.00000000E+00  1.60000000E+01  1.00800000E+00  1.00800000E+00
  0.00000000E+00  1.60000000E+01  1.00800000E+00  1.00800000E+00  0.00000000E+00
  1.60000000E+01  1.00800000E+00  1.00800000E+00  0.00000000E+00  1.60000000E+01
  1.00800000E+00  1.00800000E+00  0.00000000E+00  1.60000000E+01  1.00800000E+00
  1.00800000E+00  0.00000000E+00  1.60000000E+01  1.00800000E+00  1.00800000E+00
  0.00000000E+00  1.60000000E+01  1.00800000E+00  1.00800000E+00  0.00000000E+00
  1.60000000E+01  1.00800000E+00  1.00800000E+00  0.00000000E+00  1.60000000E+01
  1.00800000E+00  1.00800000E+00  0.00000000E+00  1.60000000E+01  1.00800000E+00
  1.00800000E+00  0.00000000E+00  1.60000000E+01  1.00800000E+00  1.00800000E+00
  0.00000000E+00  1.60000000E+01  1.00800000E+00  1.00800000E+00  0.00000000E+00
  1.60000000E+01  1.00800000E+00  1.00800000E+00  0.00000000E+00  1.60000000E+01
  1.00800000E+00  1.00800000E+00  0.00000000E+00  1.60000000E+01  1.00800000E+00
  1.00800000E+00  0.00000000E+00  1.60000000E+01  1.00800000E+00  1.00800000E+00
  0.00000000E+00  1.60000000E+01  1.00800000E+00  1.00800000E+00  0.00000000E+00
  1.60000000E+01  1.00800000E+00  1.00800000E+00  0.00000000E+00  1.60000000E+01
  1.00800000E+00  1.00800000E+00  0.00000000E+00  1.60000000E+01  1.00800000E+00
  1.00800000E+00  0.00000000E+00  1.60000000E+01  1.00800000E+00  1.00800000E+00
  0.00000000E+00  1.60000000E+01  1.00800000E+00  1.00800000E+00  0.00000000E+00
  1.60000000E+01  1.00800000E+00  1.00800000E+00  0.00000000E+00  1.60000000E+01
  1.00800000E+00  1.00800000E+00  0.00000000E+00  1.60000000E+01  1.00800000E+00
  1.00800000E+00  0.00000000E+00  1.60000000E+01  1.00800000E+00  1.00800000E+00
  0.00000000E+00  1.60000000E+01  1.00800000E+00  1.00800000E+00  0.00000000E+00
  1.60000000E+01  1.00800000E+00  1.00800000E+00  0.00000000E+00  1.60000000E+01
  1.00800000E+00  1.00800000E+00  0.00000000E+00  1.60000000E+01  1.00800000E+00
  1.00800000E+00  0.00000000E+00  1.60000000E+01  1.00800000E+00  1.00800000E+00
  0.00000000E+00  1.60000000E+01  1.00800000E+00  1.00800000E+00  0.00000000E+00
  1.60000000E+01  1.00800000E+00  1.00800000E+00  0.00000000E+00  1.60000000E+01
  1.00800000E+00  1.00800000E+00  0.00000000E+00  1.60000000E+01  1.00800000E+00
  1.00800000E+00  0.00000000E+00  1.60000000E+01  1.00800000E+00  1.00800000E+00
  0.00000000E+00  1.60000000E+01  1.00800000E+00  1.00800000E+00  0.00000000E+00
  1.60000000E+01  1.00800000E+00  1.00800000E+00  0.00000000E+00  1.60000000E+01
  1.00800000E+00  1.00800000E+00  0.00000000E+00  1.60000000E+01  1.00800000E+00
  1.00800000E+00  0.00000000E+00  1.60000000E+01  1.00800000E+00  1.00800000E+00
  0.00000000E+00  1.60000000E+01  1.00800000E+00  1.00800000E+00  0.00000000E+00
  1.60000000E+01  1.00800000E+00  1.00800000E+00  0.00000000E+00  1.60000000E+01
  1.00800000E+00  1.00800000E+00  0.00000000E+00  1.60000000E+01  1.00800000E+00
  1.00800000E+00  0.00000000E+00  1.60000000E+01  1.00800000E+00  1.00800000E+00
  0.00000000E+00  1.60000000E+01  1.00800000E+00  1.00800000E+00  0.00000000E+00
  1.60000000E+01  1.00800000E+00  1.00800000E+00  0.00000000E+00  1.60000000E+01
  1.00800000E+00  1.00800000E+00  0.00000000E+00  1.60000000E+01  1.00800000E+00
  1.00800000E+00  0.00000000E+00  1.60000000E+01  1.00800000E+00  1.00800000E+00
  0.00000000E+00  1.60000000E+01  1.00800000E+00  1.00800000E+00  0.00000000E+00
  1.60000000E+01  1.00800000E+00  1.00800000E+00  0.00000000E+00  1.60000000E+01
  1.00800000E+00  1.00800000E+00  0.00000000E+00  1.60000000E+01  1.00800000E+00
  1.00800000E+00  0.00000000E+00  1.60000000E+01  1.00800000E+00  1.00800000E+00
  0.00000000E+00  1.60000000E+01  1.00800000E+00  1.00800000E+00  0.00000000E+00
  1.60000000E+01  1.00800000E+00  1.00800000E+00  0.00000000E+00  1.60000000E+01
  1.00800000E+00  1.00800000E+00  0.00000000E+00  1.60000000E+01  1.00800000E+00
  1.00800000E+00  0.00000000E+00  1.60000000E+01  1.00800000E+00  1.00800000E+00
  0.00000000E+00  1.60000000E+01  1.00800000E+00  1.00800000E+00  0.00000000E+00
  1.60000000E+01  1.00800000E+00  1.00800000E+00  0.00000000E+00  1.60000000E+01
  1.00800000E+00  1.00800000E+00  0.00000000E+00  1.60000000E+01  1.00800000E+00
  1.00800000E+00  0.00000000E+00  1.60000000E+01  1.00800000E+00  1.00800000E+00
  0.00000000E+00  1.60000000E+01  1.00800000E+00  1.00800000E+00  0.00000000E+00
  1.60000000E+01  1.00800000E+00  1.00800000E+00  0.00000000E+00  1.60000000E+01
  1.00800000E+00  1.00800000E+00  0.00000000E+00  1.60000000E+01  1.00800000E+00
  1.00800000E+00  0.00000000E+00  1.60000000E+01  1.00800000E+00  1.00800000E+00
  0.00000000E+00  1.60000000E+01  1.00800000E+00  1.00800000E+00  0.00000000E+00
  1.60000000E+01  1.00800000E+00  1.00800000E+00  0.00000000E+00  1.60000000E+01
  1.00800000E+00  1.00800000E+00  0.00000000E+00  1.60000000E+01  1.00800000E+00
  1.00800000E+00  0.00000000E+00  1.60000000E+01  1.00800000E+00  1.00800000E+00
  0.00000000E+00  1.60000000E+01  1.00800000E+00  1.00800000E+00  0.00000000E+00
  1.60000000E+01  1.00800000E+00  1.00800000E+00  0.00000000E+00  1.60000000E+01
  1.00800000E+00  1.00800000E+00  0.00000000E+00  1.60000000E+01  1.00800000E+00
  1.00800000E+00  0.00000000E+00  1.60000000E+01  1.00800000E+00  1.00800000E+00
  0.00000000E+00  1.60000000E+01  1.00800000E+00  1.00800000E+00  0.00000000E+00
  1.60000000E+01  1.00800000E+00  1.00800000E+00  0.00000000E+00  1.60000000E+01
  1.00800000E+00  1.00800000E+00  0.00000000E+00  1.60000000E+01  1.00800000E+00
  1.00800000E+00  0.00000000E+00  1.60000000E+01  1.00800000E+00  1.00800000E+00
  0.00000000E+00  1.60000000E+01  1.00800000E+00  1.00800000E+00  0.00000000E+00
  1.60000000E+01  1.00800000E+00  1.00800000E+00  0.00000000E+00  1.60000000E+01
  1.00800000E+00  1.00800000E+00  0.00000000E+00  1.60000000E+01  1.00800000E+00
  1.00800000E+00  0.00000000E+00  1.60000000E+01  1.00800000E+00  1.00800000E+00
  0.00000000E+00  1.60000000E+01  1.00800000E+00  1.00800000E+00  0.00000000E+00
  1.60000000E+01  1.00800000E+00  1.00800000E+00  0.00000000E+00  1.60000000E+01
  1.00800000E+00  1.00800000E+00  0.00000000E+00  1.60000000E+01  1.00800000E+00
  1.00800000E+00  0.00000000E+00  1.60000000E+01  1.00800000E+00  1.00800000E+00
  0.00000000E+00  1.60000000E+01  1.00800000E+00  1.00800000E+00  0.00000000E+00
  1.60000000E+01  1.00800000E+00  1.00800000E+00  0.00000000E+00  1.60000000E+01
  1.00800000E+00  1.00800000E+00  0.00000000E+00  1.60000000E+01  1.00800000E+00
  1.00800000E+00  0.00000000E+00  1.60000000E+01  1.00800000E+00  1.00800000E+00
  0.00000000E+00  1.60000000E+01  1.00800000E+00  1.00800000E+00  0.00000000E+00
  1.60000000E+01  1.00800000E+00  1.00800000E+00  0.00000000E+00  1.60000000E+01
  1.00800000E+00  1.00800000E+00  0.00000000E+00  1.60000000E+01  1.00800000E+00
  1.00800000E+00  0.00000000E+00  1.60000000E+01  1.00800000E+00  1.00800000E+00
  0.00000000E+00  1.60000000E+01  1.00800000E+00  1.00800000E+00  0.00000000E+00
  1.60000000E+01  1.00800000E+00  1.00800000E+00  0.00000000E+00  1.60000000E+01
  1.00800000E+00  1.00800000E+00  0.00000000E+00  1.60000000E+01  1.00800000E+00
  1.00800000E+00  0.00000000E+00  1.60000000E+01  1.00800000E+00  1.00800000E+00
  0.00000000E+00  1.60000000E+01  1.00800000E+00  1.00800000E+00  0.00000000E+00
  1.60000000E+01  1.00800000E+00  1.00800000E+00  0.00000000E+00  1.60000000E+01
  1.00800000E+00  1.00800000E+00  0.00000000E+00  1.60000000E+01  1.00800000E+00
  1.00800000E+00  0.00000000E+00  1.60000000E+01  1.00800000E+00  1.00800000E+00
  0.00000000E+00  1.60000000E+01  1.00800000E+00  1.00800000E+00  0.00000000E+00
  1.60000000E+01  1.00800000E+00  1.00800000E+00  0.00000000E+00  1.60000000E+01
  1.00800000E+00  1.00800000E+00  0.00000000E+00  1.60000000E+01  1.00800000E+00
  1.00800000E+00  0.00000000E+00  1.60000000E+01  1.00800000E+00  1.00800000E+00
  0.00000000E+00  1.60000000E+01  1.00800000E+00  1.00800000E+00  0.00000000E+00
  1.60000000E+01  1.00800000E+00  1.00800000E+00  0.00000000E+00  1.60000000E+01
  1.00800000E+00  1.00800000E+00  0.00000000E+00  1.60000000E+01  1.00800000E+00
  1.00800000E+00  0.00000000E+00  1.60000000E+01  1.00800000E+00  1.00800000E+00
  0.00000000E+00  1.60000000E+01  1.00800000E+00  1.00800000E+00  0.00000000E+00
  1.60000000E+01  1.00800000E+00  1.00800000E+00  0.00000000E+00  1.60000000E+01
  1.00800000E+00  1.00800000E+00  0.00000000E+00  1.60000000E+01  1.00800000E+00
  1.00800000E+00  0.00000000E+00  1.60000000E+01  1.00800000E+00  1.00800000E+00
  0.00000000E+00  1.60000000E+01  1.00800000E+00  1.00800000E+00  0.00000000E+00
  1.60000000E+01  1.00800000E+00  1.00800000E+00  0.00000000E+00  1.60000000E+01
  1.00800000E+00  1.00800000E+00  0.00000000E+00  1.60000000E+01  1.00800000E+00
  1.00800000E+00  0.00000000E+00  1.60000000E+01  1.00800000E+00  1.00800000E+00
  0.00000000E+00  1.60000000E+01  1.00800000E+00  1.00800000E+00  0.00000000E+00
  1.60000000E+01  1.00800000E+00  1.00800000E+00  0.00000000E+00  1.60000000E+01
  1.00800000E+00  1.00800000E+00  0.00000000E+00  1.60000000E+01  1.00800000E+00
  1.00800000E+00  0.00000000E+00  1.60000000E+01  1.00800000E+00  1.00800000E+00
  0.00000000E+00  1.60000000E+01  1.00800000E+00  1.00800000E+00  0.00000000E+00
  1.60000000E+01  1.00800000E+00  1.00800000E+00  0.00000000E+00  1.60000000E+01
  1.00800000E+00  1.00800000E+00  0.00000000E+00  1.60000000E+01  1.00800000E+00
  1.00800000E+00  0.00000000E+00  1.60000000E+01  1.00800000E+00  1.00800000E+00
  0.00000000E+00  1.60000000E+01  1.00800000E+00  1.00800000E+00  0.00000000E+00
  1.60000000E+01  1.00800000E+00  1.00800000E+00  0.00000000E+00  1.60000000E+01
  1.00800000E+00  1.00800000E+00  0.00000000E+00  1.60000000E+01  1.00800000E+00
  1.00800000E+00  0.00000000E+00  1.60000000E+01  1.00800000E+00  1.00800000E+00
  0.00000000E+00  1.60000000E+01  1.00800000E+00  1.00800000E+00  0.00000000E+00
  1.60000000E+01  1.00800000E+00  1.00800000E+00  0.00000000E+00  1.60000000E+01
  1.00800000E+00  1.00800000E+00  0.00000000E+00  1.60000000E+01  1.00800000E+00
  1.00800000E+00  0.00000000E+00  1.60000000E+01  1.00800000E+00  1.00800000E+00
  0.00000000E+00  1.60000000E+01  1.00800000E+00  1.00800000E+00  0.00000000E+00
  1.60000000E+01  1.00800000E+00  1.00800000E+00  0.00000000E+00  1.60000000E+01
  1.00800000E+00  1.00800000E+00  0.00000000E+00  1.60000000E+01  1.00800000E+00
  1.00800000E+00  0.00000000E+00  1.60000000E+01  1.00800000E+00  1.00800000E+00
  0.00000000E+00  1.60000000E+01  1.00800000E+00  1.00800000E+00  0.00000000E+00
  1.60000000E+01  1.00800000E+00  1.00800000E+00  0.00000000E+00  1.60000000E+01
  1.00800000E+00  1.00800000E+00  0.00000000E+00  1.60000000E+01  1.00800000E+00
  1.00800000E+00  0.00000000E+00  1.60000000E+01  1.00800000E+00  1.00800000E+00
  0.00000000E+00  1.60000000E+01  1.00800000E+00  1.00800000E+00  0.00000000E+00
  1.60000000E+01  1.00800000E+00  1.00800000E+00  0.00000000E+00  1.60000000E+01
  1.00800000E+00  1.00800000E+00  0.00000000E+00  1.60000000E+01  1.00800000E+00
  1.00800000E+00  0.00000000E+00  1.60000000E+01  1.00800000E+00  1.00800000E+00
  0.00000000E+00  1.60000000E+01  1.00800000E+00  1.00800000E+00  0.00000000E+00
  1.60000000E+01  1.00800000E+00  1.00800000E+00  0.00000000E+00  1.60000000E+01
  1.00800000E+00  1.00800000E+00  0.00000000E+00  1.60000000E+01  1.00800000E+00
  1.00800000E+00  0.00000000E+00  1.60000000E+01  1.00800000E+00  1.00800000E+00
  0.00000000E+00  1.60000000E+01  1.00800000E+00  1.00800000E+00  0.00000000E+00
  1.60000000E+01  1.00800000E+00  1.00800000E+00  0.00000000E+00  1.60000000E+01
  1.00800000E+00  1.00800000E+00  0.00000000E+00  1.60000000E+01  1.00800000E+00
  1.00800000E+00  0.00000000E+00  1.60000000E+01  1.00800000E+00  1.00800000E+00
  0.00000000E+00  1.60000000E+01  1.00800000E+00  1.00800000E+00  0.00000000E+00
  1.60000000E+01  1.00800000E+00  1.00800000E+00  0.00000000E+00  1.60000000E+01
  1.00800000E+00  1.00800000E+00  0.00000000E+00  1.60000000E+01  1.00800000E+00
  1.00800000E+00  0.00000000E+00  1.60000000E+01  1.00800000E+00  1.00800000E+00
  0.00000000E+00  1.60000000E+01  1.00800000E+00  1.00800000E+00  0.00000000E+00
  1.60000000E+01  1.00800000E+00  1.00800000E+00  0.00000000E+00  1.60000000E+01
  1.00800000E+00  1.00800000E+00  0.00000000E+00  1.60000000E+01  1.00800000E+00
  1.00800000E+00  0.00000000E+00  1.60000000E+01  1.00800000E+00  1.00800000E+00
  0.00000000E+00  1.60000000E+01  1.00800000E+00  1.00800000E+00  0.00000000E+00
  1.60000000E+01  1.00800000E+00  1.00800000E+00  0.00000000E+00  1.60000000E+01
  1.00800000E+00  1.00800000E+00  0.00000000E+00  1.60000000E+01  1.00800000E+00
  1.00800000E+00  0.00000000E+00  1.60000000E+01  1.00800000E+00  1.00800000E+00
  0.00000000E+00  1.60000000E+01  1.00800000E+00  1.00800000E+00  0.00000000E+00
  1.60000000E+01  1.00800000E+00  1.00800000E+00  0.00000000E+00  1.60000000E+01
  1.00800000E+00  1.00800000E+00  0.00000000E+00  1.60000000E+01  1.00800000E+00
  1.00800000E+00  0.00000000E+00  1.60000000E+01  1.00800000E+00  1.00800000E+00
  0.00000000E+00  1.60000000E+01  1.00800000E+00  1.00800000E+00  0.00000000E+00
  1.60000000E+01  1.00800000E+00  1.00800000E+00  0.00000000E+00  1.60000000E+01
  1.00800000E+00  1.00800000E+00  0.00000000E+00  1.60000000E+01  1.00800000E+00
  1.00800000E+00  0.00000000E+00  1.60000000E+01  1.00800000E+00  1.00800000E+00
  0.00000000E+00  1.60000000E+01  1.00800000E+00  1.00800000E+00  0.00000000E+00
  1.60000000E+01  1.00800000E+00  1.00800000E+00  0.00000000E+00  1.60000000E+01
  1.00800000E+00  1.00800000E+00  0.00000000E+00  1.60000000E+01  1.00800000E+00
  1.00800000E+00  0.00000000E+00  1.60000000E+01  1.00800000E+00  1.00800000E+00
  0.00000000E+00  1.60000000E+01  1.00800000E+00  1.00800000E+00  0.00000000E+00
  1.60000000E+01  1.00800000E+00  1.00800000E+00  0.00000000E+00  1.60000000E+01
  1.00800000E+00  1.00800000E+00  0.00000000E+00  1.60000000E+01  1.00800000E+00
  1.00800000E+00  0.00000000E+00  1.60000000E+01  1.00800000E+00  1.00800000E+00
  0.00000000E+00  1.60000000E+01  1.00800000E+00  1.00800000E+00  0.00000000E+00
  1.60000000E+01  1.00800000E+00  1.00800000E+00  0.00000000E+00  1.60000000E+01
  1.00800000E+00  1.00800000E+00  0.00000000E+00  1.60000000E+01  1.00800000E+00
  1.00800000E+00  0.00000000E+00  1.60000000E+01  1.00800000E+00  1.00800000E+00
  0.00000000E+00  1.60000000E+01  1.00800000E+00  1.00800000E+00  0.00000000E+00
  1.60000000E+01  1.00800000E+00  1.00800000E+00  0.00000000E+00  1.60000000E+01
  1.00800000E+00  1.00800000E+00  0.00000000E+00  1.60000000E+01  1.00800000E+00
  1.00800000E+00  0.00000000E+00  1.60000000E+01  1.00800000E+00  1.00800000E+00
  0.00000000E+00  1.60000000E+01  1.00800000E+00  1.00800000E+00  0.00000000E+00
  1.60000000E+01  1.00800000E+00  1.00800000E+00  0.00000000E+00  1.60000000E+01
  1.00800000E+00  1.00800000E+00  0.00000000E+00  1.60000000E+01  1.00800000E+00
  1.00800000E+00  0.00000000E+00  1.60000000E+01  1.00800000E+00  1.00800000E+00
  0.00000000E+00  1.60000000E+01  1.00800000E+00  1.00800000E+00  0.00000000E+00
  1.60000000E+01  1.00800000E+00  1.00800000E+00  0.00000000E+00  1.60000000E+01
  1.00800000E+00  1.00800000E+00  0.00000000E+00  1.60000000E+01  1.00800000E+00
  1.00800000E+00  0.00000000E+00  1.60000000E+01  1.00800000E+00  1.00800000E+00
  0.00000000E+00  1.60000000E+01  1.00800000E+00  1.00800000E+00  0.00000000E+00
  1.60000000E+01  1.00800000E+00  1.00800000E+00  0.00000000E+00  1.60000000E+01
  1.00800000E+00  1.00800000E+00  0.00000000E+00  1.60000000E+01  1.00800000E+00
  1.00800000E+00  0.00000000E+00  1.60000000E+01  1.00800000E+00  1.00800000E+00
  0.00000000E+00  1.60000000E+01  1.00800000E+00  1.00800000E+00  0.00000000E+00
  1.60000000E+01  1.00800000E+00  1.00800000E+00  0.00000000E+00  1.60000000E+01
  1.00800000E+00  1.00800000E+00  0.00000000E+00  1.60000000E+01  1.00800000E+00
  1.00800000E+00  0.00000000E+00  1.60000000E+01  1.00800000E+00  1.00800000E+00
  0.00000000E+00  1.60000000E+01  1.00800000E+00  1.00800000E+00  0.00000000E+00
  1.60000000E+01  1.00800000E+00  1.00800000E+00  0.00000000E+00  1.60000000E+01
  1.00800000E+00  1.00800000E+00  0.00000000E+00  1.60000000E+01  1.00800000E+00
  1.00800000E+00  0.00000000E+00  1.60000000E+01  1.00800000E+00  1.00800000E+00
  0.00000000E+00  1.60000000E+01  1.00800000E+00  1.00800000E+00  0.00000000E+00
  1.60000000E+01  1.00800000E+00  1.00800000E+00  0.00000000E+00  1.60000000E+01
  1.00800000E+00  1.00800000E+00  0.00000000E+00  1.60000000E+01  1.00800000E+00
  1.00800000E+00  0.00000000E+00  1.60000000E+01  1.00800000E+00  1.00800000E+00
  0.00000000E+00  1.60000000E+01  1.00800000E+00  1.00800000E+00  0.00000000E+00
  1.60000000E+01  1.00800000E+00  1.00800000E+00  0.00000000E+00  1.60000000E+01
  1.00800000E+00  1.00800000E+00  0.00000000E+00  1.60000000E+01  1.00800000E+00
  1.00800000E+00  0.00000000E+00  1.60000000E+01  1.00800000E+00  1.00800000E+00
  0.00000000E+00  1.60000000E+01  1.00800000E+00  1.00800000E+00  0.00000000E+00
  1.60000000E+01  1.00800000E+00  1.00800000E+00  0.00000000E+00  1.60000000E+01
  1.00800000E+00  1.00800000E+00  0.00000000E+00  1.60000000E+01  1.00800000E+00
  1.00800000E+00  0.00000000E+00  1.60000000E+01  1.00800000E+00  1.00800000E+00
  0.00000000E+00  1.60000000E+01  1.00800000E+00  1.00800000E+00  0.00000000E+00
  1.60000000E+01  1.00800000E+00  1.00800000E+00  0.00000000E+00  1.60000000E+01
  1.00800000E+00  1.00800000E+00  0.00000000E+00  1.60000000E+01  1.00800000E+00
  1.00800000E+00  0.00000000E+00  1.60000000E+01  1.00800000E+00  1.00800000E+00
  0.00000000E+00  1.60000000E+01  1.00800000E+00  1.00800000E+00  0.00000000E+00
  1.60000000E+01  1.00800000E+00  1.00800000E+00  0.00000000E+00  1.60000000E+01
  1.00800000E+00  1.00800000E+00  0.00000000E+00  1.60000000E+01  1.00800000E+00
  1.00800000E+00  0.00000000E+00  1.60000000E+01  1.00800000E+00  1.00800000E+00
  0.00000000E+00  1.60000000E+01  1.00800000E+00  1.00800000E+00  0.00000000E+00
  1.60000000E+01  1.00800000E+00  1.00800000E+00  0.00000000E+00  1.60000000E+01
  1.00800000E+00  1.00800000E+00  0.00000000E+00  1.60000000E+01  1.00800000E+00
  1.00800000E+00  0.00000000E+00  1.60000000E+01  1.00800000E+00  1.00800000E+00
  0.00000000E+00  1.60000000E+01  1.00800000E+00  1.00800000E+00  0.00000000E+00
  1.60000000E+01  1.00800000E+00  1.00800000E+00  0.00000000E+00  1.60000000E+01
  1.00800000E+00  1.00800000E+00  0.00000000E+00  1.60000000E+01  1.00800000E+00
  1.00800000E+00  0.00000000E+00  1.60000000E+01  1.00800000E+00  1.00800000E+00
  0.00000000E+00  1.60000000E+01  1.00800000E+00  1.00800000E+00  0.00000000E+00
  1.60000000E+01  1.00800000E+00  1.00800000E+00  0.00000000E+00  1.60000000E+01
  1.00800000E+00  1.00800000E+00  0.00000000E+00  1.60000000E+01  1.00800000E+00
  1.00800000E+00  0.00000000E+00  1.60000000E+01  1.00800000E+00  1.00800000E+00
  0.00000000E+00  1.60000000E+01  1.00800000E+00  1.00800000E+00  0.00000000E+00
  1.60000000E+01  1.00800000E+00  1.00800000E+00  0.00000000E+00  1.60000000E+01
  1.00800000E+00  1.00800000E+00  0.00000000E+00  1.60000000E+01  1.00800000E+00
  1.00800000E+00  0.00000000E+00  1.60000000E+01  1.00800000E+00  1.00800000E+00
  0.00000000E+00  1.60000000E+01  1.00800000E+00  1.00800000E+00  0.00000000E+00
  1.60000000E+01  1.00800000E+00  1.00800000E+00  0.00000000E+00  1.60000000E+01
  1.00800000E+00  1.00800000E+00  0.00000000E+00  1.60000000E+01  1.00800000E+00
  1.00800000E+00  0.00000000E+00  1.60000000E+01  1.00800000E+00  1.00800000E+00
  0.00000000E+00  1.60000000E+01  1.00800000E+00  1.00800000E+00  0.00000000E+00
  1.60000000E+01  1.00800000E+00  1.00800000E+00  0.00000000E+00  1.60000000E+01
  1.00800000E+00  1.00800000E+00  0.00000000E+00  1.60000000E+01  1.00800000E+00
  1.00800000E+00  0.00000000E+00  1.60000000E+01  1.00800000E+00  1.00800000E+00
  0.00000000E+00  1.60000000E+01  1.00800000E+00  1.00800000E+00  0.00000000E+00
  1.60000000E+01  1.00800000E+00  1.00800000E+00  0.00000000E+00  1.60000000E+01
  1.00800000E+00  1.00800000E+00  0.00000000E+00  1.60000000E+01  1.00800000E+00
  1.00800000E+00  0.00000000E+00  1.60000000E+01  1.00800000E+00  1.00800000E+00
  0.00000000E+00  1.60000000E+01  1.00800000E+00  1.00800000E+00  0.00000000E+00
  1.60000000E+01  1.00800000E+00  1.00800000E+00  0.00000000E+00  1.60000000E+01
  1.00800000E+00  1.00800000E+00  0.00000000E+00  1.60000000E+01  1.00800000E+00
  1.00800000E+00  0.00000000E+00  1.60000000E+01  1.00800000E+00  1.00800000E+00
  0.00000000E+00  1.60000000E+01  1.00800000E+00  1.00800000E+00  0.00000000E+00
  1.60000000E+01  1.00800000E+00  1.00800000E+00  0.00000000E+00  1.60000000E+01
  1.00800000E+00  1.00800000E+00  0.00000000E+00  1.60000000E+01  1.00800000E+00
  1.00800000E+00  0.00000000E+00  1.60000000E+01  1.00800000E+00  1.00800000E+00
  0.00000000E+00  1.60000000E+01  1.00800000E+00  1.00800000E+00  0.00000000E+00
  1.60000000E+01  1.00800000E+00  1.00800000E+00  0.00000000E+00  1.60000000E+01
  1.00800000E+00  1.00800000E+00  0.00000000E+00  1.60000000E+01  1.00800000E+00
  1.00800000E+00  0.00000000E+00  1.60000000E+01  1.00800000E+00  1.00800000E+00
  0.00000000E+00  1.60000000E+01  1.00800000E+00  1.00800000E+00  0.00000000E+00
  1.60000000E+01  1.00800000E+00  1.00800000E+00  0.00000000E+00  1.60000000E+01
  1.00800000E+00  1.00800000E+00  0.00000000E+00  1.60000000E+01  1.00800000E+00
  1.00800000E+00  0.00000000E+00  1.60000000E+01  1.00800000E+00  1.00800000E+00
  0.00000000E+00  1.60000000E+01  1.00800000E+00  1.00800000E+00  0.00000000E+00
  1.60000000E+01  1.00800000E+00  1.00800000E+00  0.00000000E+00  1.60000000E+01
  1.00800000E+00  1.00800000E+00  0.00000000E+00  1.60000000E+01  1.00800000E+00
  1.00800000E+00  0.00000000E+00  1.60000000E+01  1.00800000E+00  1.00800000E+00
  0.00000000E+00  1.60000000E+01  1.00800000E+00  1.00800000E+00  0.00000000E+00
  1.60000000E+01  1.00800000E+00  1.00800000E+00  0.00000000E+00  1.60000000E+01
  1.00800000E+00  1.00800000E+00  0.00000000E+00  1.60000000E+01  1.00800000E+00
  1.00800000E+00  0.00000000E+00  1.60000000E+01  1.00800000E+00  1.00800000E+00
  0.00000000E+00  1.60000000E+01  1.00800000E+00  1.00800000E+00  0.00000000E+00
  1.60000000E+01  1.00800000E+00  1.00800000E+00  0.00000000E+00  1.60000000E+01
  1.00800000E+00  1.00800000E+00  0.00000000E+00  1.60000000E+01  1.00800000E+00
  1.00800000E+00  0.00000000E+00  1.60000000E+01  1.00800000E+00  1.00800000E+00
  0.00000000E+00  1.60000000E+01  1.00800000E+00  1.00800000E+00  0.00000000E+00
  1.60000000E+01  1.00800000E+00  1.00800000E+00  0.00000000E+00  1.60000000E+01
  1.00800000E+00  1.00800000E+00  0.00000000E+00  1.60000000E+01  1.00800000E+00
  1.00800000E+00  0.00000000E+00  1.60000000E+01  1.00800000E+00  1.00800000E+00
  0.00000000E+00  1.60000000E+01  1.00800000E+00  1.00800000E+00  0.00000000E+00
  1.60000000E+01  1.00800000E+00  1.00800000E+00  0.00000000E+00  1.60000000E+01
  1.00800000E+00  1.00800000E+00  0.00000000E+00  1.60000000E+01  1.00800000E+00
  1.00800000E+00  0.00000000E+00  1.60000000E+01  1.00800000E+00  1.00800000E+00
  0.00000000E+00  1.60000000E+01  1.00800000E+00  1.00800000E+00  0.00000000E+00
  1.60000000E+01  1.00800000E+00  1.00800000E+00  0.00000000E+00  1.60000000E+01
  1.00800000E+00  1.00800000E+00  0.00000000E+00  1.60000000E+01  1.00800000E+00
  1.00800000E+00  0.00000000E+00  1.60000000E+01  1.00800000E+00  1.00800000E+00
  0.00000000E+00  1.60000000E+01  1.00800000E+00  1.00800000E+00  0.00000000E+00
  1.60000000E+01  1.00800000E+00  1.00800000E+00  0.00000000E+00  1.60000000E+01
  1.00800000E+00  1.00800000E+00  0.00000000E+00  1.60000000E+01  1.00800000E+00
  1.00800000E+00  0.00000000E+00  1.60000000E+01  1.00800000E+00  1.00800000E+00
  0.00000000E+00  1.60000000E+01  1.00800000E+00  1.00800000E+00  0.00000000E+00
  1.60000000E+01  1.00800000E+00  1.00800000E+00  0.00000000E+00  1.60000000E+01
  1.00800000E+00  1.00800000E+00  0.00000000E+00  1.60000000E+01  1.00800000E+00
  1.00800000E+00  0.00000000E+00  1.60000000E+01  1.00800000E+00  1.00800000E+00
  0.00000000E+00  1.60000000E+01  1.00800000E+00  1.00800000E+00  0.00000000E+00
  1.60000000E+01  1.00800000E+00  1.00800000E+00  0.00000000E+00  1.60000000E+01
  1.00800000E+00  1.00800000E+00  0.00000000E+00  1.60000000E+01  1.00800000E+00
  1.00800000E+00  0.00000000E+00  1.60000000E+01  1.00800000E+00  1.00800000E+00
  0.00000000E+00  1.60000000E+01  1.00800000E+00  1.00800000E+00  0.00000000E+00
  1.60000000E+01  1.00800000E+00  1.00800000E+00  0.00000000E+00  1.60000000E+01
  1.00800000E+00  1.00800000E+00  0.00000000E+00  1.60000000E+01  1.00800000E+00
  1.00800000E+00  0.00000000E+00  1.60000000E+01  1.00800000E+00  1.00800000E+00
  0.00000000E+00  1.60000000E+01  1.00800000E+00  1.00800000E+00  0.00000000E+00
  1.60000000E+01  1.00800000E+00  1.00800000E+00  0.00000000E+00  1.60000000E+01
  1.00800000E+00  1.00800000E+00  0.00000000E+00  1.60000000E+01  1.00800000E+00
  1.00800000E+00  0.00000000E+00  1.60000000E+01  1.00800000E+00  1.00800000E+00
  0.00000000E+00  1.60000000E+01  1.00800000E+00  1.00800000E+00  0.00000000E+00
  1.60000000E+01  1.00800000E+00  1.00800000E+00  0.00000000E+00  1.60000000E+01
  1.00800000E+00  1.00800000E+00  0.00000000E+00  1.60000000E+01  1.00800000E+00
  1.00800000E+00  0.00000000E+00  1.60000000E+01  1.00800000E+00  1.00800000E+00
  0.00000000E+00  1.60000000E+01  1.00800000E+00  1.00800000E+00  0.00000000E+00
  1.60000000E+01  1.00800000E+00  1.00800000E+00  0.00000000E+00  1.60000000E+01
  1.00800000E+00  1.00800000E+00  0.00000000E+00  1.60000000E+01  1.00800000E+00
  1.00800000E+00  0.00000000E+00  1.60000000E+01  1.00800000E+00  1.00800000E+00
  0.00000000E+00  1.60000000E+01  1.00800000E+00  1.00800000E+00  0.00000000E+00
  1.60000000E+01  1.00800000E+00  1.00800000E+00  0.00000000E+00  1.60000000E+01
  1.00800000E+00  1.00800000E+00  0.00000000E+00  1.60000000E+01  1.00800000E+00
  1.00800000E+00  0.00000000E+00  1.60000000E+01  1.00800000E+00  1.00800000E+00
  0.00000000E+00  1.60000000E+01  1.00800000E+00  1.00800000E+00  0.00000000E+00
  1.60000000E+01  1.00800000E+00  1.00800000E+00  0.00000000E+00  1.60000000E+01
  1.00800000E+00  1.00800000E+00  0.00000000E+00  1.60000000E+01  1.00800000E+00
  1.00800000E+00  0.00000000E+00  1.60000000E+01  1.00800000E+00  1.00800000E+00
  0.00000000E+00  1.60000000E+01  1.00800000E+00  1.00800000E+00  0.00000000E+00
  1.60000000E+01  1.00800000E+00  1.00800000E+00  0.00000000E+00  1.60000000E+01
  1.00800000E+00  1.00800000E+00  0.00000000E+00  1.60000000E+01  1.00800000E+00
  1.00800000E+00  0.00000000E+00  1.60000000E+01  1.00800000E+00  1.00800000E+00
  0.00000000E+00  1.60000000E+01  1.00800000E+00  1.00800000E+00  0.00000000E+00
  1.60000000E+01  1.00800000E+00  1.00800000E+00  0.00000000E+00  1.60000000E+01
  1.00800000E+00  1.00800000E+00  0.00000000E+00  1.60000000E+01  1.00800000E+00
  1.00800000E+00  0.00000000E+00  1.60000000E+01  1.00800000E+00  1.00800000E+00
  0.00000000E+00  1.60000000E+01  1.00800000E+00  1.00800000E+00  0.00000000E+00
  1.60000000E+01  1.00800000E+00  1.00800000E+00  0.00000000E+00  1.60000000E+01
  1.00800000E+00  1.00800000E+00  0.00000000E+00  1.60000000E+01  1.00800000E+00
  1.00800000E+00  0.00000000E+00  1.60000000E+01  1.00800000E+00  1.00800000E+00
  0.00000000E+00  1.60000000E+01  1.00800000E+00  1.00800000E+00  0.00000000E+00
  1.60000000E+01  1.00800000E+00  1.00800000E+00  0.00000000E+00  1.60000000E+01
  1.00800000E+00  1.00800000E+00  0.00000000E+00  1.60000000E+01  1.00800000E+00
  1.00800000E+00  0.00000000E+00  1.60000000E+01  1.00800000E+00  1.00800000E+00
  0.00000000E+00  1.60000000E+01  1.00800000E+00  1.00800000E+00  0.00000000E+00
  1.60000000E+01  1.00800000E+00  1.00800000E+00  0.00000000E+00  1.60000000E+01
  1.00800000E+00  1.00800000E+00  0.00000000E+00  1.60000000E+01  1.00800000E+00
  1.00800000E+00  0.00000000E+00  1.60000000E+01  1.00800000E+00  1.00800000E+00
  0.00000000E+00  1.60000000E+01  1.00800000E+00  1.00800000E+00  0.00000000E+00
  1.60000000E+01  1.00800000E+00  1.00800000E+00  0.00000000E+00  1.60000000E+01
  1.00800000E+00  1.00800000E+00  0.00000000E+00  1.60000000E+01  1.00800000E+00
  1.00800000E+00  0.00000000E+00  1.60000000E+01  1.00800000E+00  1.00800000E+00
  0.00000000E+00  1.60000000E+01  1.00800000E+00  1.00800000E+00  0.00000000E+00
  1.60000000E+01  1.00800000E+00  1.00800000E+00  0.00000000E+00  1.60000000E+01
  1.00800000E+00  1.00800000E+00  0.00000000E+00  1.60000000E+01  1.00800000E+00
  1.00800000E+00  0.00000000E+00  1.60000000E+01  1.00800000E+00  1.00800000E+00
  0.00000000E+00  1.60000000E+01  1.00800000E+00  1.00800000E+00  0.00000000E+00
  1.60000000E+01  1.00800000E+00  1.00800000E+00  0.00000000E+00  1.60000000E+01
  1.00800000E+00  1.00800000E+00  0.00000000E+00  1.60000000E+01  1.00800000E+00
  1.00800000E+00  0.00000000E+00  1.60000000E+01  1.00800000E+00  1.00800000E+00
  0.00000000E+00  1.60000000E+01  1.00800000E+00  1.00800000E+00  0.00000000E+00
  1.60000000E+01  1.00800000E+00  1.00800000E+00  0.00000000E+00  1.60000000E+01
  1.00800000E+00  1.00800000E+00  0.00000000E+00  1.60000000E+01  1.00800000E+00
  1.00800000E+00  0.00000000E+00  1.60000000E+01  1.00800000E+00  1.00800000E+00
  0.00000000E+00  1.60000000E+01  1.00800000E+00  1.00800000E+00  0.00000000E+00
  1.60000000E+01  1.00800000E+00  1.00800000E+00  0.00000000E+00  1.60000000E+01
  1.00800000E+00  1.00800000E+00  0.00000000E+00  1.60000000E+01  1.00800000E+00
  1.00800000E+00  0.00000000E+00  1.60000000E+01  1.00800000E+00  1.00800000E+00
  0.00000000E+00  1.60000000E+01  1.00800000E+00  1.00800000E+00  0.00000000E+00
  1.60000000E+01  1.00800000E+00  1.00800000E+00  0.00000000E+00  1.60000000E+01
  1.00800000E+00  1.00800000E+00  0.00000000E+00  1.60000000E+01  1.00800000E+00
  1.00800000E+00  0.00000000E+00  1.60000000E+01  1.00800000E+00  1.00800000E+00
  0.00000000E+00  1.60000000E+01  1.00800000E+00  1.00800000E+00  0.00000000E+00
  1.60000000E+01  1.00800000E+00  1.00800000E+00  0.00000000E+00  1.60000000E+01
  1.00800000E+00  1.00800000E+00  0.00000000E+00  1.60000000E+01  1.00800000E+00
  1.00800000E+00  0.00000000E+00  1.60000000E+01  1.00800000E+00  1.00800000E+00
  0.00000000E+00  1.60000000E+01  1.00800000E+00  1.00800000E+00  0.00000000E+00
  1.60000000E+01  1.00800000E+00  1.00800000E+00  0.00000000E+00  1.60000000E+01
  1.00800000E+00  1.00800000E+00  0.00000000E+00  1.60000000E+01  1.00800000E+00
  1.00800000E+00  0.00000000E+00  1.60000000E+01  1.00800000E+00  1.00800000E+00
  0.00000000E+00  1.60000000E+01  1.00800000E+00  1.00800000E+00  0.00000000E+00
  1.60000000E+01  1.00800000E+00  1.00800000E+00  0.00000000E+00  1.60000000E+01
  1.00800000E+00  1.00800000E+00  0.00000000E+00  1.60000000E+01  1.00800000E+00
  1.00800000E+00  0.00000000E+00  1.60000000E+01  1.00800000E+00  1.00800000E+00
  0.00000000E+00  1.60000000E+01  1.00800000E+00  1.00800000E+00  0.00000000E+00
  1.60000000E+01  1.00800000E+00  1.00800000E+00  0.00000000E+00  1.60000000E+01
  1.00800000E+00  1.00800000E+00  0.00000000E+00  1.60000000E+01  1.00800000E+00
  1.00800000E+00  0.00000000E+00  1.60000000E+01  1.00800000E+00  1.00800000E+00
  0.00000000E+00  1.60000000E+01  1.00800000E+00  1.00800000E+00  0.00000000E+00
  1.60000000E+01  1.00800000E+00  1.00800000E+00  0.00000000E+00  1.60000000E+01
  1.00800000E+00  1.00800000E+00  0.00000000E+00  1.60000000E+01  1.00800000E+00
  1.00800000E+00  0.00000000E+00  1.60000000E+01  1.00800000E+00  1.00800000E+00
  0.00000000E+00  1.60000000E+01  1.00800000E+00  1.00800000E+00  0.00000000E+00
  1.60000000E+01  1.00800000E+00  1.00800000E+00  0.00000000E+00  1.60000000E+01
  1.00800000E+00  1.00800000E+00  0.00000000E+00  1.60000000E+01  1.00800000E+00
  1.00800000E+00  0.00000000E+00  1.60000000E+01  1.00800000E+00  1.00800000E+00
  0.00000000E+00  1.60000000E+01  1.00800000E+00  1.00800000E+00  0.00000000E+00
  1.60000000E+01  1.00800000E+00  1.00800000E+00  0.00000000E+00  1.60000000E+01
  1.00800000E+00  1.00800000E+00  0.00000000E+00  1.60000000E+01  1.00800000E+00
  1.00800000E+00  0.00000000E+00  1.60000000E+01  1.00800000E+00  1.00800000E+00
  0.00000000E+00  1.60000000E+01  1.00800000E+00  1.00800000E+00  0.00000000E+00
  1.60000000E+01  1.00800000E+00  1.00800000E+00  0.00000000E+00  1.60000000E+01
  1.00800000E+00  1.00800000E+00  0.00000000E+00  1.60000000E+01  1.00800000E+00
  1.00800000E+00  0.00000000E+00  1.60000000E+01  1.00800000E+00  1.00800000E+00
  0.00000000E+00  1.60000000E+01  1.00800000E+00  1.00800000E+00  0.00000000E+00
  1.60000000E+01  1.00800000E+00  1.00800000E+00  0.00000000E+00  1.60000000E+01
  1.00800000E+00  1.00800000E+00  0.00000000E+00  1.60000000E+01  1.00800000E+00
  1.00800000E+00  0.00000000E+00  1.60000000E+01  1.00800000E+00  1.00800000E+00
  0.00000000E+00  1.60000000E+01  1.00800000E+00  1.00800000E+00  0.00000000E+00
  1.60000000E+01  1.00800000E+00  1.00800000E+00  0.00000000E+00  1.60000000E+01
  1.00800000E+00  1.00800000E+00  0.00000000E+00  1.60000000E+01  1.00800000E+00
  1.00800000E+00  0.00000000E+00  1.60000000E+01  1.00800000E+00  1.00800000E+00
  0.00000000E+00  1.60000000E+01  1.00800000E+00  1.00800000E+00  0.00000000E+00
  1.60000000E+01  1.00800000E+00  1.00800000E+00  0.00000000E+00  1.60000000E+01
  1.00800000E+00  1.00800000E+00  0.00000000E+00  1.60000000E+01  1.00800000E+00
  1.00800000E+00  0.00000000E+00  1.60000000E+01  1.00800000E+00  1.00800000E+00
  0.00000000E+00  1.60000000E+01  1.00800000E+00  1.00800000E+00  0.00000000E+00
  1.60000000E+01  1.00800000E+00  1.00800000E+00  0.00000000E+00  1.60000000E+01
  1.00800000E+00  1.00800000E+00  0.00000000E+00  1.60000000E+01  1.00800000E+00
  1.00800000E+00  0.00000000E+00  1.60000000E+01  1.00800000E+00  1.00800000E+00
  0.00000000E+00  1.60000000E+01  1.00800000E+00  1.00800000E+00  0.00000000E+00
  1.60000000E+01  1.00800000E+00  1.00800000E+00  0.00000000E+00  1.60000000E+01
  1.00800000E+00  1.00800000E+00  0.00000000E+00  1.60000000E+01  1.00800000E+00
  1.00800000E+00  0.00000000E+00  1.60000000E+01  1.00800000E+00  1.00800000E+00
  0.00000000E+00  1.60000000E+01  1.00800000E+00  1.00800000E+00  0.00000000E+00
  1.60000000E+01  1.00800000E+00  1.00800000E+00  0.00000000E+00  1.60000000E+01
  1.00800000E+00  1.00800000E+00  0.00000000E+00  1.60000000E+01  1.00800000E+00
  1.00800000E+00  0.00000000E+00  1.60000000E+01  1.00800000E+00  1.00800000E+00
  0.00000000E+00  1.60000000E+01  1.00800000E+00  1.00800000E+00  0.00000000E+00
  1.60000000E+01  1.00800000E+00  1.00800000E+00  0.00000000E+00  1.60000000E+01
  1.00800000E+00  1.00800000E+00  0.00000000E+00  1.60000000E+01  1.00800000E+00
  1.00800000E+00  0.00000000E+00  1.60000000E+01  1.00800000E+00  1.00800000E+00
  0.00000000E+00  1.60000000E+01  1.00800000E+00  1.00800000E+00  0.00000000E+00
  1.60000000E+01  1.00800000E+00  1.00800000E+00  0.00000000E+00  1.60000000E+01
  1.00800000E+00  1.00800000E+00  0.00000000E+00  1.60000000E+01  1.00800000E+00
  1.00800000E+00  0.00000000E+00  1.60000000E+01  1.00800000E+00  1.00800000E+00
  0.00000000E+00  1.60000000E+01  1.00800000E+00  1.00800000E+00  0.00000000E+00
  1.60000000E+01  1.00800000E+00  1.00800000E+00  0.00000000E+00  1.60000000E+01
  1.00800000E+00  1.00800000E+00  0.00000000E+00  1.60000000E+01  1.00800000E+00
  1.00800000E+00  0.00000000E+00  1.60000000E+01  1.00800000E+00  1.00800000E+00
  0.00000000E+00  1.60000000E+01  1.00800000E+00  1.00800000E+00  0.00000000E+00
  1.60000000E+01  1.00800000E+00  1.00800000E+00  0.00000000E+00  1.60000000E+01
  1.00800000E+00  1.00800000E+00  0.00000000E+00  1.60000000E+01  1.00800000E+00
  1.00800000E+00  0.00000000E+00  1.60000000E+01  1.00800000E+00  1.00800000E+00
  0.00000000E+00  1.60000000E+01  1.00800000E+00  1.00800000E+00  0.00000000E+00
  1.60000000E+01  1.00800000E+00  1.00800000E+00  0.00000000E+00  1.60000000E+01
  1.00800000E+00  1.00800000E+00  0.00000000E+00  1.60000000E+01  1.00800000E+00
  1.00800000E+00  0.00000000E+00  1.60000000E+01  1.00800000E+00  1.00800000E+00
  0.00000000E+00  1.60000000E+01  1.00800000E+00  1.00800000E+00  0.00000000E+00
  1.60000000E+01  1.00800000E+00  1.00800000E+00  0.00000000E+00  1.60000000E+01
  1.00800000E+00  1.00800000E+00  0.00000000E+00  1.60000000E+01  1.00800000E+00
  1.00800000E+00  0.00000000E+00  1.60000000E+01  1.00800000E+00  1.00800000E+00
  0.00000000E+00  1.60000000E+01  1.00800000E+00  1.00800000E+00  0.00000000E+00
  1.60000000E+01  1.00800000E+00  1.00800000E+00  0.00000000E+00  1.60000000E+01
  1.00800000E+00  1.00800000E+00  0.00000000E+00  1.60000000E+01  1.00800000E+00
  1.00800000E+00  0.00000000E+00  1.60000000E+01  1.00800000E+00  1.00800000E+00
  0.00000000E+00  1.60000000E+01  1.00800000E+00  1.00800000E+00  0.00000000E+00
  1.60000000E+01  1.00800000E+00  1.00800000E+00  0.00000000E+00  1.60000000E+01
  1.00800000E+00  1.00800000E+00  0.00000000E+00  1.60000000E+01  1.00800000E+00
  1.00800000E+00  0.00000000E+00  1.60000000E+01  1.00800000E+00  1.00800000E+00
  0.00000000E+00  1.60000000E+01  1.00800000E+00  1.00800000E+00  0.00000000E+00
  1.60000000E+01  1.00800000E+00  1.00800000E+00  0.00000000E+00  1.60000000E+01
  1.00800000E+00  1.00800000E+00  0.00000000E+00  1.60000000E+01  1.00800000E+00
  1.00800000E+00  0.00000000E+00  1.60000000E+01  1.00800000E+00  1.00800000E+00
  0.00000000E+00  1.60000000E+01  1.00800000E+00  1.00800000E+00  0.00000000E+00
  1.60000000E+01  1.00800000E+00  1.00800000E+00  0.00000000E+00  1.60000000E+01
  1.00800000E+00  1.00800000E+00  0.00000000E+00  1.60000000E+01  1.00800000E+00
  1.00800000E+00  0.00000000E+00  1.60000000E+01  1.00800000E+00  1.00800000E+00
  0.00000000E+00  1.60000000E+01  1.00800000E+00  1.00800000E+00  0.00000000E+00
  1.60000000E+01  1.00800000E+00  1.00800000E+00  0.00000000E+00  1.60000000E+01
  1.00800000E+00  1.00800000E+00  0.00000000E+00  1.60000000E+01  1.00800000E+00
  1.00800000E+00  0.00000000E+00  1.60000000E+01  1.00800000E+00  1.00800000E+00
  0.00000000E+00  1.60000000E+01  1.00800000E+00  1.00800000E+00  0.00000000E+00
  1.60000000E+01  1.00800000E+00  1.00800000E+00  0.00000000E+00  1.60000000E+01
  1.00800000E+00  1.00800000E+00  0.00000000E+00  1.60000000E+01  1.00800000E+00
  1.00800000E+00  0.00000000E+00  1.60000000E+01  1.00800000E+00  1.00800000E+00
  0.00000000E+00  1.60000000E+01  1.00800000E+00  1.00800000E+00  0.00000000E+00
  1.60000000E+01  1.00800000E+00  1.00800000E+00  0.00000000E+00  1.60000000E+01
  1.00800000E+00  1.00800000E+00  0.00000000E+00  1.60000000E+01  1.00800000E+00
  1.00800000E+00  0.00000000E+00  1.60000000E+01  1.00800000E+00  1.00800000E+00
  0.00000000E+00  1.60000000E+01  1.00800000E+00  1.00800000E+00  0.00000000E+00
  1.60000000E+01  1.00800000E+00  1.00800000E+00  0.00000000E+00  1.60000000E+01
  1.00800000E+00  1.00800000E+00  0.00000000E+00  1.60000000E+01  1.00800000E+00
  1.00800000E+00  0.00000000E+00  1.60000000E+01  1.00800000E+00  1.00800000E+00
  0.00000000E+00  1.60000000E+01  1.00800000E+00  1.00800000E+00  0.00000000E+00
  1.60000000E+01  1.00800000E+00  1.00800000E+00  0.00000000E+00  1.60000000E+01
  1.00800000E+00  1.00800000E+00  0.00000000E+00  1.60000000E+01  1.00800000E+00
  1.00800000E+00  0.00000000E+00  1.60000000E+01  1.00800000E+00  1.00800000E+00
  0.00000000E+00  1.60000000E+01  1.00800000E+00  1.00800000E+00  0.00000000E+00
  1.60000000E+01  1.00800000E+00  1.00800000E+00  0.00000000E+00  1.60000000E+01
  1.00800000E+00  1.00800000E+00  0.00000000E+00  1.60000000E+01  1.00800000E+00
  1.00800000E+00  0.00000000E+00  1.60000000E+01  1.00800000E+00  1.00800000E+00
  0.00000000E+00  1.60000000E+01  1.00800000E+00  1.00800000E+00  0.00000000E+00
  1.60000000E+01  1.00800000E+00  1.00800000E+00  0.00000000E+00  1.60000000E+01
  1.00800000E+00  1.00800000E+00  0.00000000E+00  1.60000000E+01  1.00800000E+00
  1.00800000E+00  0.00000000E+00  1.60000000E+01  1.00800000E+00  1.00800000E+00
  0.00000000E+00  1.60000000E+01  1.00800000E+00  1.00800000E+00  0.00000000E+00
  1.60000000E+01  1.00800000E+00  1.00800000E+00  0.00000000E+00  1.60000000E+01
  1.00800000E+00  1.00800000E+00  0.00000000E+00  1.60000000E+01  1.00800000E+00
  1.00800000E+00  0.00000000E+00  1.60000000E+01  1.00800000E+00  1.00800000E+00
  0.00000000E+00  1.60000000E+01  1.00800000E+00  1.00800000E+00  0.00000000E+00
  1.60000000E+01  1.00800000E+00  1.00800000E+00  0.00000000E+00  1.60000000E+01
  1.00800000E+00  1.00800000E+00  0.00000000E+00  1.60000000E+01  1.00800000E+00
  1.00800000E+00  0.00000000E+00  1.60000000E+01  1.00800000E+00  1.00800000E+00
  0.00000000E+00  1.60000000E+01  1.00800000E+00  1.00800000E+00  0.00000000E+00
  1.60000000E+01  1.00800000E+00  1.00800000E+00  0.00000000E+00  1.60000000E+01
  1.00800000E+00  1.00800000E+00  0.00000000E+00  1.60000000E+01  1.00800000E+00
  1.00800000E+00  0.00000000E+00  1.60000000E+01  1.00800000E+00  1.00800000E+00
  0.00000000E+00  1.60000000E+01  1.00800000E+00  1.00800000E+00  0.00000000E+00
  1.60000000E+01  1.00800000E+00  1.00800000E+00  0.00000000E+00  1.60000000E+01
  1.00800000E+00  1.00800000E+00  0.00000000E+00  1.60000000E+01  1.00800000E+00
  1.00800000E+00  0.00000000E+00  1.60000000E+01  1.00800000E+00  1.00800000E+00
  0.00000000E+00  1.60000000E+01  1.00800000E+00  1.00800000E+00  0.00000000E+00
  1.60000000E+01  1.00800000E+00  1.00800000E+00  0.00000000E+00  1.60000000E+01
  1.00800000E+00  1.00800000E+00  0.00000000E+00  1.60000000E+01  1.00800000E+00
  1.00800000E+00  0.00000000E+00  1.60000000E+01  1.00800000E+00  1.00800000E+00
  0.00000000E+00  1.60000000E+01  1.00800000E+00  1.00800000E+00  0.00000000E+00
  1.60000000E+01  1.00800000E+00  1.00800000E+00  0.00000000E+00  1.60000000E+01
  1.00800000E+00  1.00800000E+00  0.00000000E+00  1.60000000E+01  1.00800000E+00
  1.00800000E+00  0.00000000E+00  1.60000000E+01  1.00800000E+00  1.00800000E+00
  0.00000000E+00  1.60000000E+01  1.00800000E+00  1.00800000E+00  0.00000000E+00
  1.60000000E+01  1.00800000E+00  1.00800000E+00  0.00000000E+00  1.60000000E+01
  1.00800000E+00  1.00800000E+00  0.00000000E+00  1.60000000E+01  1.00800000E+00
  1.00800000E+00  0.00000000E+00  1.60000000E+01  1.00800000E+00  1.00800000E+00
  0.00000000E+00  1.60000000E+01  1.00800000E+00  1.00800000E+00  0.00000000E+00
  1.60000000E+01  1.00800000E+00  1.00800000E+00  0.00000000E+00  1.60000000E+01
  1.00800000E+00  1.00800000E+00  0.00000000E+00  1.60000000E+01  1.00800000E+00
  1.00800000E+00  0.00000000E+00  1.60000000E+01  1.00800000E+00  1.00800000E+00
  0.00000000E+00  1.60000000E+01  1.00800000E+00  1.00800000E+00  0.00000000E+00
  1.60000000E+01  1.00800000E+00  1.00800000E+00  0.00000000E+00  1.60000000E+01
  1.00800000E+00  1.00800000E+00  0.00000000E+00  1.60000000E+01  1.00800000E+00
  1.00800000E+00  0.00000000E+00  1.60000000E+01  1.00800000E+00  1.00800000E+00
  0.00000000E+00  1.60000000E+01  1.00800000E+00  1.00800000E+00  0.00000000E+00
  1.60000000E+01  1.00800000E+00  1.00800000E+00  0.00000000E+00  1.60000000E+01
  1.00800000E+00  1.00800000E+00  0.00000000E+00  1.60000000E+01  1.00800000E+00
  1.00800000E+00  0.00000000E+00  1.60000000E+01  1.00800000E+00  1.00800000E+00
  0.00000000E+00  1.60000000E+01  1.00800000E+00  1.00800000E+00  0.00000000E+00
  1.60000000E+01  1.00800000E+00  1.00800000E+00  0.00000000E+00  1.60000000E+01
  1.00800000E+00  1.00800000E+00  0.00000000E+00  1.60000000E+01  1.00800000E+00
  1.00800000E+00  0.00000000E+00  1.60000000E+01  1.00800000E+00  1.00800000E+00
  0.00000000E+00  1.60000000E+01  1.00800000E+00  1.00800000E+00  0.00000000E+00
  1.60000000E+01  1.00800000E+00  1.00800000E+00  0.00000000E+00  1.60000000E+01
  1.00800000E+00  1.00800000E+00  0.00000000E+00  1.60000000E+01  1.00800000E+00
  1.00800000E+00  0.00000000E+00  1.60000000E+01  1.00800000E+00  1.00800000E+00
  0.00000000E+00  1.60000000E+01  1.00800000E+00  1.00800000E+00  0.00000000E+00
  1.60000000E+01  1.00800000E+00  1.00800000E+00  0.00000000E+00  1.60000000E+01
  1.00800000E+00  1.00800000E+00  0.00000000E+00  1.60000000E+01  1.00800000E+00
  1.00800000E+00  0.00000000E+00  1.60000000E+01  1.00800000E+00  1.00800000E+00
  0.00000000E+00  1.60000000E+01  1.00800000E+00  1.00800000E+00  0.00000000E+00
  1.60000000E+01  1.00800000E+00  1.00800000E+00  0.00000000E+00  1.60000000E+01
  1.00800000E+00  1.00800000E+00  0.00000000E+00  1.60000000E+01  1.00800000E+00
  1.00800000E+00  0.00000000E+00  1.60000000E+01  1.00800000E+00  1.00800000E+00
  0.00000000E+00  1.60000000E+01  1.00800000E+00  1.00800000E+00  0.00000000E+00
  1.60000000E+01  1.00800000E+00  1.00800000E+00  0.00000000E+00  1.60000000E+01
  1.00800000E+00  1.00800000E+00  0.00000000E+00  1.60000000E+01  1.00800000E+00
  1.00800000E+00  0.00000000E+00  1.60000000E+01  1.00800000E+00  1.00800000E+00
  0.00000000E+00  1.60000000E+01  1.00800000E+00  1.00800000E+00  0.00000000E+00
  1.60000000E+01  1.00800000E+00  1.00800000E+00  0.00000000E+00  1.60000000E+01
  1.00800000E+00  1.00800000E+00  0.00000000E+00  1.60000000E+01  1.00800000E+00
  1.00800000E+00  0.00000000E+00  1.60000000E+01  1.00800000E+00  1.00800000E+00
  0.00000000E+00  1.60000000E+01  1.00800000E+00  1.00800000E+00  0.00000000E+00
  1.60000000E+01  1.00800000E+00  1.00800000E+00  0.00000000E+00  1.60000000E+01
  1.00800000E+00  1.00800000E+00  0.00000000E+00  1.60000000E+01  1.00800000E+00
  1.00800000E+00  0.00000000E+00  1.60000000E+01  1.00800000E+00  1.00800000E+00
  0.00000000E+00  1.60000000E+01  1.00800000E+00  1.00800000E+00  0.00000000E+00
  1.60000000E+01  1.00800000E+00  1.00800000E+00  0.00000000E+00  1.60000000E+01
  1.00800000E+00  1.00800000E+00  0.00000000E+00  1.60000000E+01  1.00800000E+00
  1.00800000E+00  0.00000000E+00  1.60000000E+01  1.00800000E+00  1.00800000E+00
  0.00000000E+00  1.60000000E+01  1.00800000E+00  1.00800000E+00  0.00000000E+00
  1.60000000E+01  1.00800000E+00  1.00800000E+00  0.00000000E+00  1.60000000E+01
  1.00800000E+00  1.00800000E+00  0.00000000E+00  1.60000000E+01  1.00800000E+00
  1.00800000E+00  0.00000000E+00  1.60000000E+01  1.00800000E+00  1.00800000E+00
  0.00000000E+00  1.60000000E+01  1.00800000E+00  1.00800000E+00  0.00000000E+00
  1.60000000E+01  1.00800000E+00  1.00800000E+00  0.00000000E+00  1.60000000E+01
  1.00800000E+00  1.00800000E+00  0.00000000E+00  1.60000000E+01  1.00800000E+00
  1.00800000E+00  0.00000000E+00  1.60000000E+01  1.00800000E+00  1.00800000E+00
  0.00000000E+00  1.60000000E+01  1.00800000E+00  1.00800000E+00  0.00000000E+00
  1.60000000E+01  1.00800000E+00  1.00800000E+00  0.00000000E+00  1.60000000E+01
  1.00800000E+00  1.00800000E+00  0.00000000E+00  1.60000000E+01  1.00800000E+00
  1.00800000E+00  0.00000000E+00  1.60000000E+01  1.00800000E+00  1.00800000E+00
  0.00000000E+00  1.60000000E+01  1.00800000E+00  1.00800000E+00  0.00000000E+00
  1.60000000E+01  1.00800000E+00  1.00800000E+00  0.00000000E+00  1.60000000E+01
  1.00800000E+00  1.00800000E+00  0.00000000E+00  1.60000000E+01  1.00800000E+00
  1.00800000E+00  0.00000000E+00  1.60000000E+01  1.00800000E+00  1.00800000E+00
  0.00000000E+00  1.60000000E+01  1.00800000E+00  1.00800000E+00  0.00000000E+00
  1.60000000E+01  1.00800000E+00  1.00800000E+00  0.00000000E+00  1.60000000E+01
  1.00800000E+00  1.00800000E+00  0.00000000E+00  1.60000000E+01  1.00800000E+00
  1.00800000E+00  0.00000000E+00  1.60000000E+01  1.00800000E+00  1.00800000E+00
  0.00000000E+00  1.60000000E+01  1.00800000E+00  1.00800000E+00  0.00000000E+00
  1.60000000E+01  1.00800000E+00  1.00800000E+00  0.00000000E+00  1.60000000E+01
  1.00800000E+00  1.00800000E+00  0.00000000E+00  1.60000000E+01  1.00800000E+00
  1.00800000E+00  0.00000000E+00  1.60000000E+01  1.00800000E+00  1.00800000E+00
  0.00000000E+00  1.60000000E+01  1.00800000E+00  1.00800000E+00  0.00000000E+00
  1.60000000E+01  1.00800000E+00  1.00800000E+00  0.00000000E+00  1.60000000E+01
  1.00800000E+00  1.00800000E+00  0.00000000E+00  1.60000000E+01  1.00800000E+00
  1.00800000E+00  0.00000000E+00  1.60000000E+01  1.00800000E+00  1.00800000E+00
  0.00000000E+00  1.60000000E+01  1.00800000E+00  1.00800000E+00  0.00000000E+00
  1.60000000E+01  1.00800000E+00  1.00800000E+00  0.00000000E+00  1.60000000E+01
  1.00800000E+00  1.00800000E+00  0.00000000E+00  1.60000000E+01  1.00800000E+00
  1.00800000E+00  0.00000000E+00  1.60000000E+01  1.00800000E+00  1.00800000E+00
  0.00000000E+00  1.60000000E+01  1.00800000E+00  1.00800000E+00  0.00000000E+00
  1.60000000E+01  1.00800000E+00  1.00800000E+00  0.00000000E+00  1.60000000E+01
  1.00800000E+00  1.00800000E+00  0.00000000E+00  1.60000000E+01  1.00800000E+00
  1.00800000E+00  0.00000000E+00  1.60000000E+01  1.00800000E+00  1.00800000E+00
  0.00000000E+00  1.60000000E+01  1.00800000E+00  1.00800000E+00  0.00000000E+00
  1.60000000E+01  1.00800000E+00  1.00800000E+00  0.00000000E+00  1.60000000E+01
  1.00800000E+00  1.00800000E+00  0.00000000E+00  1.60000000E+01  1.00800000E+00
  1.00800000E+00  0.00000000E+00  1.60000000E+01  1.00800000E+00  1.00800000E+00
  0.00000000E+00  1.60000000E+01  1.00800000E+00  1.00800000E+00  0.00000000E+00
  1.60000000E+01  1.00800000E+00  1.00800000E+00  0.00000000E+00  1.60000000E+01
  1.00800000E+00  1.00800000E+00  0.00000000E+00  1.60000000E+01  1.00800000E+00
  1.00800000E+00  0.00000000E+00  1.60000000E+01  1.00800000E+00  1.00800000E+00
  0.00000000E+00  1.60000000E+01  1.00800000E+00  1.00800000E+00  0.00000000E+00
  1.60000000E+01  1.00800000E+00  1.00800000E+00  0.00000000E+00  1.60000000E+01
  1.00800000E+00  1.00800000E+00  0.00000000E+00  1.60000000E+01  1.00800000E+00
  1.00800000E+00  0.00000000E+00  1.60000000E+01  1.00800000E+00  1.00800000E+00
  0.00000000E+00  1.60000000E+01  1.00800000E+00  1.00800000E+00  0.00000000E+00
  1.60000000E+01  1.00800000E+00  1.00800000E+00  0.00000000E+00  1.60000000E+01
  1.00800000E+00  1.00800000E+00  0.00000000E+00  1.60000000E+01  1.00800000E+00
  1.00800000E+00  0.00000000E+00  1.60000000E+01  1.00800000E+00  1.00800000E+00
  0.00000000E+00  1.60000000E+01  1.00800000E+00  1.00800000E+00  0.00000000E+00
  1.60000000E+01  1.00800000E+00  1.00800000E+00  0.00000000E+00  1.60000000E+01
  1.00800000E+00  1.00800000E+00  0.00000000E+00  1.60000000E+01  1.00800000E+00
  1.00800000E+00  0.00000000E+00  1.60000000E+01  1.00800000E+00  1.00800000E+00
  0.00000000E+00  1.60000000E+01  1.00800000E+00  1.00800000E+00  0.00000000E+00
  1.60000000E+01  1.00800000E+00  1.00800000E+00  0.00000000E+00  1.60000000E+01
  1.00800000E+00  1.00800000E+00  0.00000000E+00  1.60000000E+01  1.00800000E+00
  1.00800000E+00  0.00000000E+00  1.60000000E+01  1.00800000E+00  1.00800000E+00
  0.00000000E+00  1.60000000E+01  1.00800000E+00  1.00800000E+00  0.00000000E+00
  1.60000000E+01  1.00800000E+00  1.00800000E+00  0.00000000E+00  1.60000000E+01
  1.00800000E+00  1.00800000E+00  0.00000000E+00  1.60000000E+01  1.00800000E+00
  1.00800000E+00  0.00000000E+00  1.60000000E+01  1.00800000E+00  1.00800000E+00
  0.00000000E+00  1.60000000E+01  1.00800000E+00  1.00800000E+00  0.00000000E+00
  1.60000000E+01  1.00800000E+00  1.00800000E+00  0.00000000E+00  1.60000000E+01
  1.00800000E+00  1.00800000E+00  0.00000000E+00  1.60000000E+01  1.00800000E+00
  1.00800000E+00  0.00000000E+00  1.60000000E+01  1.00800000E+00  1.00800000E+00
  0.00000000E+00  1.60000000E+01  1.00800000E+00  1.00800000E+00  0.00000000E+00
  1.60000000E+01  1.00800000E+00  1.00800000E+00  0.00000000E+00  1.60000000E+01
  1.00800000E+00  1.00800000E+00  0.00000000E+00  1.60000000E+01  1.00800000E+00
  1.00800000E+00  0.00000000E+00  1.60000000E+01  1.00800000E+00  1.00800000E+00
  0.00000000E+00  1.60000000E+01  1.00800000E+00  1.00800000E+00  0.00000000E+00
  1.60000000E+01  1.00800000E+00  1.00800000E+00  0.00000000E+00  1.60000000E+01
  1.00800000E+00  1.00800000E+00  0.00000000E+00  1.60000000E+01  1.00800000E+00
  1.00800000E+00  0.00000000E+00  1.60000000E+01  1.00800000E+00  1.00800000E+00
  0.00000000E+00  1.60000000E+01  1.00800000E+00  1.00800000E+00  0.00000000E+00
  1.60000000E+01  1.00800000E+00  1.00800000E+00  0.00000000E+00  1.60000000E+01
  1.00800000E+00  1.00800000E+00  0.00000000E+00  1.60000000E+01  1.00800000E+00
  1.00800000E+00  0.00000000E+00  1.60000000E+01  1.00800000E+00  1.00800000E+00
  0.00000000E+00  1.60000000E+01  1.00800000E+00  1.00800000E+00  0.00000000E+00
  1.60000000E+01  1.00800000E+00  1.00800000E+00  0.00000000E+00  1.60000000E+01
  1.00800000E+00  1.00800000E+00  0.00000000E+00  1.60000000E+01  1.00800000E+00
  1.00800000E+00  0.00000000E+00  1.60000000E+01  1.00800000E+00  1.00800000E+00
  0.00000000E+00  1.60000000E+01  1.00800000E+00  1.00800000E+00  0.00000000E+00
  1.60000000E+01  1.00800000E+00  1.00800000E+00  0.00000000E+00  1.60000000E+01
  1.00800000E+00  1.00800000E+00  0.00000000E+00  1.60000000E+01  1.00800000E+00
  1.00800000E+00  0.00000000E+00  1.60000000E+01  1.00800000E+00  1.00800000E+00
  0.00000000E+00  1.60000000E+01  1.00800000E+00  1.00800000E+00  0.00000000E+00
  1.60000000E+01  1.00800000E+00  1.00800000E+00  0.00000000E+00  1.60000000E+01
  1.00800000E+00  1.00800000E+00  0.00000000E+00  1.60000000E+01  1.00800000E+00
  1.00800000E+00  0.00000000E+00  1.60000000E+01  1.00800000E+00  1.00800000E+00
  0.00000000E+00  1.60000000E+01  1.00800000E+00  1.00800000E+00  0.00000000E+00
  1.60000000E+01  1.00800000E+00  1.00800000E+00  0.00000000E+00  1.60000000E+01
  1.00800000E+00  1.00800000E+00  0.00000000E+00  1.60000000E+01  1.00800000E+00
  1.00800000E+00  0.00000000E+00  1.60000000E+01  1.00800000E+00  1.00800000E+00
  0.00000000E+00  1.60000000E+01  1.00800000E+00  1.00800000E+00  0.00000000E+00
  1.60000000E+01  1.00800000E+00  1.00800000E+00  0.00000000E+00  1.60000000E+01
  1.00800000E+00  1.00800000E+00  0.00000000E+00  1.60000000E+01  1.00800000E+00
  1.00800000E+00  0.00000000E+00  1.60000000E+01  1.00800000E+00  1.00800000E+00
  0.00000000E+00  1.60000000E+01  1.00800000E+00  1.00800000E+00  0.00000000E+00
  1.60000000E+01  1.00800000E+00  1.00800000E+00  0.00000000E+00  1.60000000E+01
  1.00800000E+00  1.00800000E+00  0.00000000E+00  1.60000000E+01  1.00800000E+00
  1.00800000E+00  0.00000000E+00  1.60000000E+01  1.00800000E+00  1.00800000E+00
  0.00000000E+00  1.60000000E+01  1.00800000E+00  1.00800000E+00  0.00000000E+00
  1.60000000E+01  1.00800000E+00  1.00800000E+00  0.00000000E+00  1.60000000E+01
  1.00800000E+00  1.00800000E+00  0.00000000E+00  1.60000000E+01  1.00800000E+00
  1.00800000E+00  0.00000000E+00  1.60000000E+01  1.00800000E+00  1.00800000E+00
  0.00000000E+00  1.60000000E+01  1.00800000E+00  1.00800000E+00  0.00000000E+00
  1.60000000E+01  1.00800000E+00  1.00800000E+00  0.00000000E+00  1.60000000E+01
  1.00800000E+00  1.00800000E+00  0.00000000E+00  1.60000000E+01  1.00800000E+00
  1.00800000E+00  0.00000000E+00  1.60000000E+01  1.00800000E+00  1.00800000E+00
  0.00000000E+00  1.60000000E+01  1.00800000E+00  1.00800000E+00  0.00000000E+00
  1.60000000E+01  1.00800000E+00  1.00800000E+00  0.00000000E+00  1.60000000E+01
  1.00800000E+00  1.00800000E+00  0.00000000E+00  1.60000000E+01  1.00800000E+00
  1.00800000E+00  0.00000000E+00  1.60000000E+01  1.00800000E+00  1.00800000E+00
  0.00000000E+00  1.60000000E+01  1.00800000E+00  1.00800000E+00  0.00000000E+00
  1.60000000E+01  1.00800000E+00  1.00800000E+00  0.00000000E+00  1.60000000E+01
  1.00800000E+00  1.00800000E+00  0.00000000E+00  1.60000000E+01  1.00800000E+00
  1.00800000E+00  0.00000000E+00  1.60000000E+01  1.00800000E+00  1.00800000E+00
  0.00000000E+00  1.60000000E+01  1.00800000E+00  1.00800000E+00  0.00000000E+00
  1.60000000E+01  1.00800000E+00  1.00800000E+00  0.00000000E+00  1.60000000E+01
  1.00800000E+00  1.00800000E+00  0.00000000E+00  1.60000000E+01  1.00800000E+00
  1.00800000E+00  0.00000000E+00  1.60000000E+01  1.00800000E+00  1.00800000E+00
  0.00000000E+00  1.60000000E+01  1.00800000E+00  1.00800000E+00  0.00000000E+00
  1.60000000E+01  1.00800000E+00  1.00800000E+00  0.00000000E+00  1.60000000E+01
  1.00800000E+00  1.00800000E+00  0.00000000E+00  1.60000000E+01  1.00800000E+00
  1.00800000E+00  0.00000000E+00  1.60000000E+01  1.00800000E+00  1.00800000E+00
  0.00000000E+00  1.60000000E+01  1.00800000E+00  1.00800000E+00  0.00000000E+00
  1.60000000E+01  1.00800000E+00  1.00800000E+00  0.00000000E+00  1.60000000E+01
  1.00800000E+00  1.00800000E+00  0.00000000E+00  1.60000000E+01  1.00800000E+00
  1.00800000E+00  0.00000000E+00  1.60000000E+01  1.00800000E+00  1.00800000E+00
  0.00000000E+00  1.60000000E+01  1.00800000E+00  1.00800000E+00  0.00000000E+00
  1.60000000E+01  1.00800000E+00  1.00800000E+00  0.00000000E+00  1.60000000E+01
  1.00800000E+00  1.00800000E+00  0.00000000E+00  1.60000000E+01  1.00800000E+00
  1.00800000E+00  0.00000000E+00  1.60000000E+01  1.00800000E+00  1.00800000E+00
  0.00000000E+00  1.60000000E+01  1.00800000E+00  1.00800000E+00  0.00000000E+00
  1.60000000E+01  1.00800000E+00  1.00800000E+00  0.00000000E+00  1.60000000E+01
  1.00800000E+00  1.00800000E+00  0.00000000E+00  1.60000000E+01  1.00800000E+00
  1.00800000E+00  0.00000000E+00  1.60000000E+01  1.00800000E+00  1.00800000E+00
  0.00000000E+00  1.60000000E+01  1.00800000E+00  1.00800000E+00  0.00000000E+00
  1.60000000E+01  1.00800000E+00  1.00800000E+00  0.00000000E+00  1.60000000E+01
  1.00800000E+00  1.00800000E+00  0.00000000E+00  1.60000000E+01  1.00800000E+00
  1.00800000E+00  0.00000000E+00  1.60000000E+01  1.00800000E+00  1.00800000E+00
  0.00000000E+00  1.60000000E+01  1.00800000E+00  1.00800000E+00  0.00000000E+00
  1.60000000E+01  1.00800000E+00  1.00800000E+00  0.00000000E+00  1.60000000E+01
  1.00800000E+00  1.00800000E+00  0.00000000E+00  1.60000000E+01  1.00800000E+00
  1.00800000E+00  0.00000000E+00  1.60000000E+01  1.00800000E+00  1.00800000E+00
  0.00000000E+00  1.60000000E+01  1.00800000E+00  1.00800000E+00  0.00000000E+00
  1.60000000E+01  1.00800000E+00  1.00800000E+00  0.00000000E+00  1.60000000E+01
  1.00800000E+00  1.00800000E+00  0.00000000E+00  1.60000000E+01  1.00800000E+00
  1.00800000E+00  0.00000000E+00  1.60000000E+01  1.00800000E+00  1.00800000E+00
  0.00000000E+00  1.60000000E+01  1.00800000E+00  1.00800000E+00  0.00000000E+00
  1.60000000E+01  1.00800000E+00  1.00800000E+00  0.00000000E+00  1.60000000E+01
  1.00800000E+00  1.00800000E+00  0.00000000E+00  1.60000000E+01  1.00800000E+00
  1.00800000E+00  0.00000000E+00  1.60000000E+01  1.00800000E+00  1.00800000E+00
  0.00000000E+00  1.60000000E+01  1.00800000E+00  1.00800000E+00  0.00000000E+00
  1.60000000E+01  1.00800000E+00  1.00800000E+00  0.00000000E+00  1.60000000E+01
  1.00800000E+00  1.00800000E+00  0.00000000E+00  1.60000000E+01  1.00800000E+00
  1.00800000E+00  0.00000000E+00  1.60000000E+01  1.00800000E+00  1.00800000E+00
  0.00000000E+00  1.60000000E+01  1.00800000E+00  1.00800000E+00  0.00000000E+00
  1.60000000E+01  1.00800000E+00  1.00800000E+00  0.00000000E+00  1.60000000E+01
  1.00800000E+00  1.00800000E+00  0.00000000E+00  1.60000000E+01  1.00800000E+00
  1.00800000E+00  0.00000000E+00  1.60000000E+01  1.00800000E+00  1.00800000E+00
  0.00000000E+00  1.60000000E+01  1.00800000E+00  1.00800000E+00  0.00000000E+00
  1.60000000E+01  1.00800000E+00  1.00800000E+00  0.00000000E+00  1.60000000E+01
  1.00800000E+00  1.00800000E+00  0.00000000E+00  1.60000000E+01  1.00800000E+00
  1.00800000E+00  0.00000000E+00  1.60000000E+01  1.00800000E+00  1.00800000E+00
  0.00000000E+00  1.60000000E+01  1.00800000E+00  1.00800000E+00  0.00000000E+00
  1.60000000E+01  1.00800000E+00  1.00800000E+00  0.00000000E+00  1.60000000E+01
  1.00800000E+00  1.00800000E+00  0.00000000E+00  1.60000000E+01  1.00800000E+00
  1.00800000E+00  0.00000000E+00  1.60000000E+01  1.00800000E+00  1.00800000E+00
  0.00000000E+00  1.60000000E+01  1.00800000E+00  1.00800000E+00  0.00000000E+00
  1.60000000E+01  1.00800000E+00  1.00800000E+00  0.00000000E+00  1.60000000E+01
  1.00800000E+00  1.00800000E+00  0.00000000E+00  1.60000000E+01  1.00800000E+00
  1.00800000E+00  0.00000000E+00  1.60000000E+01  1.00800000E+00  1.00800000E+00
  0.00000000E+00  1.60000000E+01  1.00800000E+00  1.00800000E+00  0.00000000E+00
  1.60000000E+01  1.00800000E+00  1.00800000E+00  0.00000000E+00  1.60000000E+01
  1.00800000E+00  1.00800000E+00  0.00000000E+00  1.60000000E+01  1.00800000E+00
  1.00800000E+00  0.00000000E+00  1.60000000E+01  1.00800000E+00  1.00800000E+00
  0.00000000E+00  1.60000000E+01  1.00800000E+00  1.00800000E+00  0.00000000E+00
  1.60000000E+01  1.00800000E+00  1.00800000E+00  0.00000000E+00  1.60000000E+01
  1.00800000E+00  1.00800000E+00  0.00000000E+00  1.60000000E+01  1.00800000E+00
  1.00800000E+00  0.00000000E+00  1.60000000E+01  1.00800000E+00  1.00800000E+00
  0.00000000E+00  1.60000000E+01  1.00800000E+00  1.00800000E+00  0.00000000E+00
  1.60000000E+01  1.00800000E+00  1.00800000E+00  0.00000000E+00  1.60000000E+01
  1.00800000E+00  1.00800000E+00  0.00000000E+00  1.60000000E+01  1.00800000E+00
  1.00800000E+00  0.00000000E+00  1.60000000E+01  1.00800000E+00  1.00800000E+00
  0.00000000E+00  1.60000000E+01  1.00800000E+00  1.00800000E+00  0.00000000E+00
  1.60000000E+01  1.00800000E+00  1.00800000E+00  0.00000000E+00  1.60000000E+01
  1.00800000E+00  1.00800000E+00  0.00000000E+00  1.60000000E+01  1.00800000E+00
  1.00800000E+00  0.00000000E+00  1.60000000E+01  1.00800000E+00  1.00800000E+00
  0.00000000E+00  1.60000000E+01  1.00800000E+00  1.00800000E+00  0.00000000E+00
  1.60000000E+01  1.00800000E+00  1.00800000E+00  0.00000000E+00  1.60000000E+01
  1.00800000E+00  1.00800000E+00  0.00000000E+00  1.60000000E+01  1.00800000E+00
  1.00800000E+00  0.00000000E+00  1.60000000E+01  1.00800000E+00  1.00800000E+00
  0.00000000E+00  1.60000000E+01  1.00800000E+00  1.00800000E+00  0.00000000E+00
  1.60000000E+01  1.00800000E+00  1.00800000E+00  0.00000000E+00  1.60000000E+01
  1.00800000E+00  1.00800000E+00  0.00000000E+00  1.60000000E+01  1.00800000E+00
  1.00800000E+00  0.00000000E+00  1.60000000E+01  1.00800000E+00  1.00800000E+00
  0.00000000E+00  1.60000000E+01  1.00800000E+00  1.00800000E+00  0.00000000E+00
  1.60000000E+01  1.00800000E+00  1.00800000E+00  0.00000000E+00  1.60000000E+01
  1.00800000E+00  1.00800000E+00  0.00000000E+00  1.60000000E+01  1.00800000E+00
  1.00800000E+00  0.00000000E+00  1.60000000E+01  1.00800000E+00  1.00800000E+00
  0.00000000E+00  1.60000000E+01  1.00800000E+00  1.00800000E+00  0.00000000E+00
  1.60000000E+01  1.00800000E+00  1.00800000E+00  0.00000000E+00  1.60000000E+01
  1.00800000E+00  1.00800000E+00  0.00000000E+00  1.60000000E+01  1.00800000E+00
  1.00800000E+00  0.00000000E+00  1.60000000E+01  1.00800000E+00  1.00800000E+00
  0.00000000E+00  1.60000000E+01  1.00800000E+00  1.00800000E+00  0.00000000E+00
  1.60000000E+01  1.00800000E+00  1.00800000E+00  0.00000000E+00  1.60000000E+01
  1.00800000E+00  1.00800000E+00  0.00000000E+00  1.60000000E+01  1.00800000E+00
  1.00800000E+00  0.00000000E+00  1.60000000E+01  1.00800000E+00  1.00800000E+00
  0.00000000E+00  1.60000000E+01  1.00800000E+00  1.00800000E+00  0.00000000E+00
  1.60000000E+01  1.00800000E+00  1.00800000E+00  0.00000000E+00  1.60000000E+01
  1.00800000E+00  1.00800000E+00  0.00000000E+00  1.60000000E+01  1.00800000E+00
  1.00800000E+00  0.00000000E+00  1.60000000E+01  1.00800000E+00  1.00800000E+00
  0.00000000E+00  1.60000000E+01  1.00800000E+00  1.00800000E+00  0.00000000E+00
  1.60000000E+01  1.00800000E+00  1.00800000E+00  0.00000000E+00  1.60000000E+01
  1.00800000E+00  1.00800000E+00  0.00000000E+00  1.60000000E+01  1.00800000E+00
  1.00800000E+00  0.00000000E+00  1.60000000E+01  1.00800000E+00  1.00800000E+00
  0.00000000E+00  1.60000000E+01  1.00800000E+00  1.00800000E+00  0.00000000E+00
  1.60000000E+01  1.00800000E+00  1.00800000E+00  0.00000000E+00  1.60000000E+01
  1.00800000E+00  1.00800000E+00  0.00000000E+00  1.60000000E+01  1.00800000E+00
  1.00800000E+00  0.00000000E+00  1.60000000E+01  1.00800000E+00  1.00800000E+00
  0.00000000E+00  1.60000000E+01  1.00800000E+00  1.00800000E+00  0.00000000E+00
  1.60000000E+01  1.00800000E+00  1.00800000E+00  0.00000000E+00  1.60000000E+01
  1.00800000E+00  1.00800000E+00  0.00000000E+00  1.60000000E+01  1.00800000E+00
  1.00800000E+00  0.00000000E+00  1.60000000E+01  1.00800000E+00  1.00800000E+00
  0.00000000E+00  1.60000000E+01  1.00800000E+00  1.00800000E+00  0.00000000E+00
  1.60000000E+01  1.00800000E+00  1.00800000E+00  0.00000000E+00  1.60000000E+01
  1.00800000E+00  1.00800000E+00  0.00000000E+00  1.60000000E+01  1.00800000E+00
  1.00800000E+00  0.00000000E+00  1.60000000E+01  1.00800000E+00  1.00800000E+00
  0.00000000E+00  1.60000000E+01  1.00800000E+00  1.00800000E+00  0.00000000E+00
  1.60000000E+01  1.00800000E+00  1.00800000E+00  0.00000000E+00  1.60000000E+01
  1.00800000E+00  1.00800000E+00  0.00000000E+00  1.60000000E+01  1.00800000E+00
  1.00800000E+00  0.00000000E+00  1.60000000E+01  1.00800000E+00  1.00800000E+00
  0.00000000E+00  1.60000000E+01  1.00800000E+00  1.00800000E+00  0.00000000E+00
  1.60000000E+01  1.00800000E+00  1.00800000E+00  0.00000000E+00  1.60000000E+01
  1.00800000E+00  1.00800000E+00  0.00000000E+00  1.60000000E+01  1.00800000E+00
  1.00800000E+00  0.00000000E+00  1.60000000E+01  1.00800000E+00  1.00800000E+00
  0.00000000E+00  1.60000000E+01  1.00800000E+00  1.00800000E+00  0.00000000E+00
  1.60000000E+01  1.00800000E+00  1.00800000E+00  0.00000000E+00  1.60000000E+01
  1.00800000E+00  1.00800000E+00  0.00000000E+00  1.60000000E+01  1.00800000E+00
  1.00800000E+00  0.00000000E+00  1.60000000E+01  1.00800000E+00  1.00800000E+00
  0.00000000E+00  1.60000000E+01  1.00800000E+00  1.00800000E+00  0.00000000E+00
  1.60000000E+01  1.00800000E+00  1.00800000E+00  0.00000000E+00  1.60000000E+01
  1.00800000E+00  1.00800000E+00  0.00000000E+00  1.60000000E+01  1.00800000E+00
  1.00800000E+00  0.00000000E+00  1.60000000E+01  1.00800000E+00  1.00800000E+00
  0.00000000E+00  1.60000000E+01  1.00800000E+00  1.00800000E+00  0.00000000E+00
  1.60000000E+01  1.00800000E+00  1.00800000E+00  0.00000000E+00  1.60000000E+01
  1.00800000E+00  1.00800000E+00  0.00000000E+00  1.60000000E+01  1.00800000E+00
  1.00800000E+00  0.00000000E+00  1.60000000E+01  1.00800000E+00  1.00800000E+00
  0.00000000E+00  1.60000000E+01  1.00800000E+00  1.00800000E+00  0.00000000E+00
  1.60000000E+01  1.00800000E+00  1.00800000E+00  0.00000000E+00  1.60000000E+01
  1.00800000E+00  1.00800000E+00  0.00000000E+00  1.60000000E+01  1.00800000E+00
  1.00800000E+00  0.00000000E+00  1.60000000E+01  1.00800000E+00  1.00800000E+00
  0.00000000E+00  1.60000000E+01  1.00800000E+00  1.00800000E+00  0.00000000E+00
  1.60000000E+01  1.00800000E+00  1.00800000E+00  0.00000000E+00  1.60000000E+01
  1.00800000E+00  1.00800000E+00  0.00000000E+00  1.60000000E+01  1.00800000E+00
  1.00800000E+00  0.00000000E+00  1.60000000E+01  1.00800000E+00  1.00800000E+00
  0.00000000E+00  1.60000000E+01  1.00800000E+00  1.00800000E+00  0.00000000E+00
  1.60000000E+01  1.00800000E+00  1.00800000E+00  0.00000000E+00  1.60000000E+01
  1.00800000E+00  1.00800000E+00  0.00000000E+00  1.60000000E+01  1.00800000E+00
  1.00800000E+00  0.00000000E+00  1.60000000E+01  1.00800000E+00  1.00800000E+00
  0.00000000E+00  1.60000000E+01  1.00800000E+00  1.00800000E+00  0.00000000E+00
  1.60000000E+01  1.00800000E+00  1.00800000E+00  0.00000000E+00  1.60000000E+01
  1.00800000E+00  1.00800000E+00  0.00000000E+00  1.60000000E+01  1.00800000E+00
  1.00800000E+00  0.00000000E+00  1.60000000E+01  1.00800000E+00  1.00800000E+00
  0.00000000E+00  1.60000000E+01  1.00800000E+00  1.00800000E+00  0.00000000E+00
  1.60000000E+01  1.00800000E+00  1.00800000E+00  0.00000000E+00  1.60000000E+01
  1.00800000E+00  1.00800000E+00  0.00000000E+00  1.60000000E+01  1.00800000E+00
  1.00800000E+00  0.00000000E+00  1.60000000E+01  1.00800000E+00  1.00800000E+00
  0.00000000E+00  1.60000000E+01  1.00800000E+00  1.00800000E+00  0.00000000E+00
  1.60000000E+01  1.00800000E+00  1.00800000E+00  0.00000000E+00  1.60000000E+01
  1.00800000E+00  1.00800000E+00  0.00000000E+00  1.60000000E+01  1.00800000E+00
  1.00800000E+00  0.00000000E+00  1.60000000E+01  1.00800000E+00  1.00800000E+00
  0.00000000E+00  1.60000000E+01  1.00800000E+00  1.00800000E+00  0.00000000E+00
  1.60000000E+01  1.00800000E+00  1.00800000E+00  0.00000000E+00  1.60000000E+01
  1.00800000E+00  1.00800000E+00  0.00000000E+00  1.60000000E+01  1.00800000E+00
  1.00800000E+00  0.00000000E+00  1.60000000E+01  1.00800000E+00  1.00800000E+00
  0.00000000E+00  1.60000000E+01  1.00800000E+00  1.00800000E+00  0.00000000E+00
  1.60000000E+01  1.00800000E+00  1.00800000E+00  0.00000000E+00  1.60000000E+01
  1.00800000E+00  1.00800000E+00  0.00000000E+00  1.60000000E+01  1.00800000E+00
  1.00800000E+00  0.00000000E+00  1.60000000E+01  1.00800000E+00  1.00800000E+00
  0.00000000E+00  1.60000000E+01  1.00800000E+00  1.00800000E+00  0.00000000E+00
  1.60000000E+01  1.00800000E+00  1.00800000E+00  0.00000000E+00  1.60000000E+01
  1.00800000E+00  1.00800000E+00  0.00000000E+00  1.60000000E+01  1.00800000E+00
  1.00800000E+00  0.00000000E+00  1.60000000E+01  1.00800000E+00  1.00800000E+00
  0.00000000E+00  1.60000000E+01  1.00800000E+00  1.00800000E+00  0.00000000E+00
  1.60000000E+01  1.00800000E+00  1.00800000E+00  0.00000000E+00  1.60000000E+01
  1.00800000E+00  1.00800000E+00  0.00000000E+00  1.60000000E+01  1.00800000E+00
  1.00800000E+00  0.00000000E+00  1.60000000E+01  1.00800000E+00  1.00800000E+00
  0.00000000E+00  1.60000000E+01  1.00800000E+00  1.00800000E+00  0.00000000E+00
  1.60000000E+01  1.00800000E+00  1.00800000E+00  0.00000000E+00  1.60000000E+01
  1.00800000E+00  1.00800000E+00  0.00000000E+00  1.60000000E+01  1.00800000E+00
  1.00800000E+00  0.00000000E+00  1.60000000E+01  1.00800000E+00  1.00800000E+00
  0.00000000E+00  1.60000000E+01  1.00800000E+00  1.00800000E+00  0.00000000E+00
  1.60000000E+01  1.00800000E+00  1.00800000E+00  0.00000000E+00  1.60000000E+01
  1.00800000E+00  1.00800000E+00  0.00000000E+00  1.60000000E+01  1.00800000E+00
  1.00800000E+00  0.00000000E+00  1.60000000E+01  1.00800000E+00  1.00800000E+00
  0.00000000E+00  1.60000000E+01  1.00800000E+00  1.00800000E+00  0.00000000E+00
  1.60000000E+01  1.00800000E+00  1.00800000E+00  0.00000000E+00  1.60000000E+01
  1.00800000E+00  1.00800000E+00  0.00000000E+00  1.60000000E+01  1.00800000E+00
  1.00800000E+00  0.00000000E+00  1.60000000E+01  1.00800000E+00  1.00800000E+00
  0.00000000E+00  1.60000000E+01  1.00800000E+00  1.00800000E+00  0.00000000E+00
  1.60000000E+01  1.00800000E+00  1.00800000E+00  0.00000000E+00  1.60000000E+01
  1.00800000E+00  1.00800000E+00  0.00000000E+00  1.60000000E+01  1.00800000E+00
  1.00800000E+00  0.00000000E+00  1.60000000E+01  1.00800000E+00  1.00800000E+00
  0.00000000E+00  1.60000000E+01  1.00800000E+00  1.00800000E+00  0.00000000E+00
  1.60000000E+01  1.00800000E+00  1.00800000E+00  0.00000000E+00  1.60000000E+01
  1.00800000E+00  1.00800000E+00  0.00000000E+00  1.60000000E+01  1.00800000E+00
  1.00800000E+00  0.00000000E+00  1.60000000E+01  1.00800000E+00  1.00800000E+00
  0.00000000E+00  1.60000000E+01  1.00800000E+00  1.00800000E+00  0.00000000E+00
  1.60000000E+01  1.00800000E+00  1.00800000E+00  0.00000000E+00  1.60000000E+01
  1.00800000E+00  1.00800000E+00  0.00000000E+00  1.60000000E+01  1.00800000E+00
  1.00800000E+00  0.00000000E+00  1.60000000E+01  1.00800000E+00  1.00800000E+00
  0.00000000E+00  1.60000000E+01  1.00800000E+00  1.00800000E+00  0.00000000E+00
  1.60000000E+01  1.00800000E+00  1.00800000E+00  0.00000000E+00  1.60000000E+01
  1.00800000E+00  1.00800000E+00  0.00000000E+00  1.60000000E+01  1.00800000E+00
  1.00800000E+00  0.00000000E+00  1.60000000E+01  1.00800000E+00  1.00800000E+00
  0.00000000E+00  1.60000000E+01  1.00800000E+00  1.00800000E+00  0.00000000E+00
  1.60000000E+01  1.00800000E+00  1.00800000E+00  0.00000000E+00  1.60000000E+01
  1.00800000E+00  1.00800000E+00  0.00000000E+00  1.60000000E+01  1.00800000E+00
  1.00800000E+00  0.00000000E+00  1.60000000E+01  1.00800000E+00  1.00800000E+00
  0.00000000E+00  1.60000000E+01  1.00800000E+00  1.00800000E+00  0.00000000E+00
  1.60000000E+01  1.00800000E+00  1.00800000E+00  0.00000000E+00  1.60000000E+01
  1.00800000E+00  1.00800000E+00  0.00000000E+00  1.60000000E+01  1.00800000E+00
  1.00800000E+00  0.00000000E+00  1.60000000E+01  1.00800000E+00  1.00800000E+00
  0.00000000E+00  1.60000000E+01  1.00800000E+00  1.00800000E+00  0.00000000E+00
  1.60000000E+01  1.00800000E+00  1.00800000E+00  0.00000000E+00  1.60000000E+01
  1.00800000E+00  1.00800000E+00  0.00000000E+00  1.60000000E+01  1.00800000E+00
  1.00800000E+00  0.00000000E+00  1.60000000E+01  1.00800000E+00  1.00800000E+00
  0.00000000E+00  1.60000000E+01  1.00800000E+00  1.00800000E+00  0.00000000E+00
  1.60000000E+01  1.00800000E+00  1.00800000E+00  0.00000000E+00  1.60000000E+01
  1.00800000E+00  1.00800000E+00  0.00000000E+00  1.60000000E+01  1.00800000E+00
  1.00800000E+00  0.00000000E+00  1.60000000E+01  1.00800000E+00  1.00800000E+00
  0.00000000E+00  1.60000000E+01  1.00800000E+00  1.00800000E+00  0.00000000E+00
  1.60000000E+01  1.00800000E+00  1.00800000E+00  0.00000000E+00  1.60000000E+01
  1.00800000E+00  1.00800000E+00  0.00000000E+00  1.60000000E+01  1.00800000E+00
  1.00800000E+00  0.00000000E+00  1.60000000E+01  1.00800000E+00  1.00800000E+00
  0.00000000E+00  1.60000000E+01  1.00800000E+00  1.00800000E+00  0.00000000E+00
  1.60000000E+01  1.00800000E+00  1.00800000E+00  0.00000000E+00  1.60000000E+01
  1.00800000E+00  1.00800000E+00  0.00000000E+00  1.60000000E+01  1.00800000E+00
  1.00800000E+00  0.00000000E+00  1.60000000E+01  1.00800000E+00  1.00800000E+00
  0.00000000E+00  1.60000000E+01  1.00800000E+00  1.00800000E+00  0.00000000E+00
  1.60000000E+01  1.00800000E+00  1.00800000E+00  0.00000000E+00  1.60000000E+01
  1.00800000E+00  1.00800000E+00  0.00000000E+00  1.60000000E+01  1.00800000E+00
  1.00800000E+00  0.00000000E+00  1.60000000E+01  1.00800000E+00  1.00800000E+00
  0.00000000E+00  1.60000000E+01  1.00800000E+00  1.00800000E+00  0.00000000E+00
  1.60000000E+01  1.00800000E+00  1.00800000E+00  0.00000000E+00  1.60000000E+01
  1.00800000E+00  1.00800000E+00  0.00000000E+00  1.60000000E+01  1.00800000E+00
  1.00800000E+00  0.00000000E+00  1.60000000E+01  1.00800000E+00  1.00800000E+00
  0.00000000E+00  1.60000000E+01  1.00800000E+00  1.00800000E+00  0.00000000E+00
  1.60000000E+01  1.00800000E+00  1.00800000E+00  0.00000000E+00  1.60000000E+01
  1.00800000E+00  1.00800000E+00  0.00000000E+00  1.60000000E+01  1.00800000E+00
  1.00800000E+00  0.00000000E+00  1.60000000E+01  1.00800000E+00  1.00800000E+00
  0.00000000E+00  1.60000000E+01  1.00800000E+00  1.00800000E+00  0.00000000E+00
  1.60000000E+01  1.00800000E+00  1.00800000E+00  0.00000000E+00  1.60000000E+01
  1.00800000E+00  1.00800000E+00  0.00000000E+00  1.60000000E+01  1.00800000E+00
  1.00800000E+00  0.00000000E+00  1.60000000E+01  1.00800000E+00  1.00800000E+00
  0.00000000E+00  1.60000000E+01  1.00800000E+00  1.00800000E+00  0.00000000E+00
  1.60000000E+01  1.00800000E+00  1.00800000E+00  0.00000000E+00  1.60000000E+01
  1.00800000E+00  1.00800000E+00  0.00000000E+00  1.60000000E+01  1.00800000E+00
  1.00800000E+00  0.00000000E+00  1.60000000E+01  1.00800000E+00  1.00800000E+00
  0.00000000E+00  1.60000000E+01  1.00800000E+00  1.00800000E+00  0.00000000E+00
  1.60000000E+01  1.00800000E+00  1.00800000E+00  0.00000000E+00  1.60000000E+01
  1.00800000E+00  1.00800000E+00  0.00000000E+00  1.60000000E+01  1.00800000E+00
  1.00800000E+00  0.00000000E+00  1.60000000E+01  1.00800000E+00  1.00800000E+00
  0.00000000E+00  1.60000000E+01  1.00800000E+00  1.00800000E+00  0.00000000E+00
  1.60000000E+01  1.00800000E+00  1.00800000E+00  0.00000000E+00  1.60000000E+01
  1.00800000E+00  1.00800000E+00  0.00000000E+00  1.60000000E+01  1.00800000E+00
  1.00800000E+00  0.00000000E+00  1.60000000E+01  1.00800000E+00  1.00800000E+00
  0.00000000E+00  1.60000000E+01  1.00800000E+00  1.00800000E+00  0.00000000E+00
  1.60000000E+01  1.00800000E+00  1.00800000E+00  0.00000000E+00  1.60000000E+01
  1.00800000E+00  1.00800000E+00  0.00000000E+00  1.60000000E+01  1.00800000E+00
  1.00800000E+00  0.00000000E+00  1.60000000E+01  1.00800000E+00  1.00800000E+00
  0.00000000E+00  1.60000000E+01  1.00800000E+00  1.00800000E+00  0.00000000E+00
  1.60000000E+01  1.00800000E+00  1.00800000E+00  0.00000000E+00  1.60000000E+01
  1.00800000E+00  1.00800000E+00  0.00000000E+00  1.60000000E+01  1.00800000E+00
  1.00800000E+00  0.00000000E+00  1.60000000E+01  1.00800000E+00  1.00800000E+00
  0.00000000E+00  1.60000000E+01  1.00800000E+00  1.00800000E+00  0.00000000E+00
  1.60000000E+01  1.00800000E+00  1.00800000E+00  0.00000000E+00  1.60000000E+01
  1.00800000E+00  1.00800000E+00  0.00000000E+00  1.60000000E+01  1.00800000E+00
  1.00800000E+00  0.00000000E+00  1.60000000E+01  1.00800000E+00  1.00800000E+00
  0.00000000E+00  1.60000000E+01  1.00800000E+00  1.00800000E+00  0.00000000E+00
  1.60000000E+01  1.00800000E+00  1.00800000E+00  0.00000000E+00  1.60000000E+01
  1.00800000E+00  1.00800000E+00  0.00000000E+00  1.60000000E+01  1.00800000E+00
  1.00800000E+00  0.00000000E+00  1.60000000E+01  1.00800000E+00  1.00800000E+00
  0.00000000E+00  1.60000000E+01  1.00800000E+00  1.00800000E+00  0.00000000E+00
  1.60000000E+01  1.00800000E+00  1.00800000E+00  0.00000000E+00  1.60000000E+01
  1.00800000E+00  1.00800000E+00  0.00000000E+00  1.60000000E+01  1.00800000E+00
  1.00800000E+00  0.00000000E+00  1.60000000E+01  1.00800000E+00  1.00800000E+00
  0.00000000E+00  1.60000000E+01  1.00800000E+00  1.00800000E+00  0.00000000E+00
  1.60000000E+01  1.00800000E+00  1.00800000E+00  0.00000000E+00  1.60000000E+01
  1.00800000E+00  1.00800000E+00  0.00000000E+00  1.60000000E+01  1.00800000E+00
  1.00800000E+00  0.00000000E+00  1.60000000E+01  1.00800000E+00  1.00800000E+00
  0.00000000E+00  1.60000000E+01  1.00800000E+00  1.00800000E+00  0.00000000E+00
  1.60000000E+01  1.00800000E+00  1.00800000E+00  0.00000000E+00  1.60000000E+01
  1.00800000E+00  1.00800000E+00  0.00000000E+00  1.60000000E+01  1.00800000E+00
  1.00800000E+00  0.00000000E+00  1.60000000E+01  1.00800000E+00  1.00800000E+00
  0.00000000E+00  1.60000000E+01  1.00800000E+00  1.00800000E+00  0.00000000E+00
  1.60000000E+01  1.00800000E+00  1.00800000E+00  0.00000000E+00  1.60000000E+01
  1.00800000E+00  1.00800000E+00  0.00000000E+00  1.60000000E+01  1.00800000E+00
  1.00800000E+00  0.00000000E+00  1.60000000E+01  1.00800000E+00  1.00800000E+00
  0.00000000E+00  1.60000000E+01  1.00800000E+00  1.00800000E+00  0.00000000E+00
  1.60000000E+01  1.00800000E+00  1.00800000E+00  0.00000000E+00  1.60000000E+01
  1.00800000E+00  1.00800000E+00  0.00000000E+00  1.60000000E+01  1.00800000E+00
  1.00800000E+00  0.00000000E+00  1.60000000E+01  1.00800000E+00  1.00800000E+00
  0.00000000E+00  1.60000000E+01  1.00800000E+00  1.00800000E+00  0.00000000E+00
  1.60000000E+01  1.00800000E+00  1.00800000E+00  0.00000000E+00  1.60000000E+01
  1.00800000E+00  1.00800000E+00  0.00000000E+00  1.60000000E+01  1.00800000E+00
  1.00800000E+00  0.00000000E+00  1.60000000E+01  1.00800000E+00  1.00800000E+00
  0.00000000E+00  1.60000000E+01  1.00800000E+00  1.00800000E+00  0.00000000E+00
  1.60000000E+01  1.00800000E+00  1.00800000E+00  0.00000000E+00  1.60000000E+01
  1.00800000E+00  1.00800000E+00  0.00000000E+00  1.60000000E+01  1.00800000E+00
  1.00800000E+00  0.00000000E+00  1.60000000E+01  1.00800000E+00  1.00800000E+00
  0.00000000E+00  1.60000000E+01  1.00800000E+00  1.00800000E+00  0.00000000E+00
  1.60000000E+01  1.00800000E+00  1.00800000E+00  0.00000000E+00  1.60000000E+01
  1.00800000E+00  1.00800000E+00  0.00000000E+00  1.60000000E+01  1.00800000E+00
  1.00800000E+00  0.00000000E+00  1.60000000E+01  1.00800000E+00  1.00800000E+00
  0.00000000E+00  1.60000000E+01  1.00800000E+00  1.00800000E+00  0.00000000E+00
  1.60000000E+01  1.00800000E+00  1.00800000E+00  0.00000000E+00  1.60000000E+01
  1.00800000E+00  1.00800000E+00  0.00000000E+00  1.60000000E+01  1.00800000E+00
  1.00800000E+00  0.00000000E+00  1.60000000E+01  1.00800000E+00  1.00800000E+00
  0.00000000E+00  1.60000000E+01  1.00800000E+00  1.00800000E+00  0.00000000E+00
  1.60000000E+01  1.00800000E+00  1.00800000E+00  0.00000000E+00  1.60000000E+01
  1.00800000E+00  1.00800000E+00  0.00000000E+00  1.60000000E+01  1.00800000E+00
  1.00800000E+00  0.00000000E+00  1.60000000E+01  1.00800000E+00  1.00800000E+00
  0.00000000E+00  1.60000000E+01  1.00800000E+00  1.00800000E+00  0.00000000E+00
  1.60000000E+01  1.00800000E+00  1.00800000E+00  0.00000000E+00  1.60000000E+01
  1.00800000E+00  1.00800000E+00  0.00000000E+00  1.60000000E+01  1.00800000E+00
  1.00800000E+00  0.00000000E+00  1.60000000E+01  1.00800000E+00  1.00800000E+00
  0.00000000E+00  1.60000000E+01  1.00800000E+00  1.00800000E+00  0.00000000E+00
  1.60000000E+01  1.00800000E+00  1.00800000E+00  0.00000000E+00  1.60000000E+01
  1.00800000E+00  1.00800000E+00  0.00000000E+00  1.60000000E+01  1.00800000E+00
  1.00800000E+00  0.00000000E+00  1.60000000E+01  1.00800000E+00  1.00800000E+00
  0.00000000E+00  1.60000000E+01  1.00800000E+00  1.00800000E+00  0.00000000E+00
  1.60000000E+01  1.00800000E+00  1.00800000E+00  0.00000000E+00  1.60000000E+01
  1.00800000E+00  1.00800000E+00  0.00000000E+00  1.60000000E+01  1.00800000E+00
  1.00800000E+00  0.00000000E+00  1.60000000E+01  1.00800000E+00  1.00800000E+00
  0.00000000E+00  1.60000000E+01  1.00800000E+00  1.00800000E+00  0.00000000E+00
  1.60000000E+01  1.00800000E+00  1.00800000E+00  0.00000000E+00  1.60000000E+01
  1.00800000E+00  1.00800000E+00  0.00000000E+00  1.60000000E+01  1.00800000E+00
  1.00800000E+00  0.00000000E+00  1.60000000E+01  1.00800000E+00  1.00800000E+00
  0.00000000E+00  1.60000000E+01  1.00800000E+00  1.00800000E+00  0.00000000E+00
  1.60000000E+01  1.00800000E+00  1.00800000E+00  0.00000000E+00  1.60000000E+01
  1.00800000E+00  1.00800000E+00  0.00000000E+00  1.60000000E+01  1.00800000E+00
  1.00800000E+00  0.00000000E+00  1.60000000E+01  1.00800000E+00  1.00800000E+00
  0.00000000E+00  1.60000000E+01  1.00800000E+00  1.00800000E+00  0.00000000E+00
  1.60000000E+01  1.00800000E+00  1.00800000E+00  0.00000000E+00  1.60000000E+01
  1.00800000E+00  1.00800000E+00  0.00000000E+00  1.60000000E+01  1.00800000E+00
  1.00800000E+00  0.00000000E+00  1.60000000E+01  1.00800000E+00  1.00800000E+00
  0.00000000E+00  1.60000000E+01  1.00800000E+00  1.00800000E+00  0.00000000E+00
  1.60000000E+01  1.00800000E+00  1.00800000E+00  0.00000000E+00  1.60000000E+01
  1.00800000E+00  1.00800000E+00  0.00000000E+00  1.60000000E+01  1.00800000E+00
  1.00800000E+00  0.00000000E+00  1.60000000E+01  1.00800000E+00  1.00800000E+00
  0.00000000E+00  1.60000000E+01  1.00800000E+00  1.00800000E+00  0.00000000E+00
  1.60000000E+01  1.00800000E+00  1.00800000E+00  0.00000000E+00  1.60000000E+01
  1.00800000E+00  1.00800000E+00  0.00000000E+00  1.60000000E+01  1.00800000E+00
  1.00800000E+00  0.00000000E+00  1.60000000E+01  1.00800000E+00  1.00800000E+00
  0.00000000E+00  1.60000000E+01  1.00800000E+00  1.00800000E+00  0.00000000E+00
  1.60000000E+01  1.00800000E+00  1.00800000E+00  0.00000000E+00  1.60000000E+01
  1.00800000E+00  1.00800000E+00  0.00000000E+00  1.60000000E+01  1.00800000E+00
  1.00800000E+00  0.00000000E+00  1.60000000E+01  1.00800000E+00  1.00800000E+00
  0.00000000E+00  1.60000000E+01  1.00800000E+00  1.00800000E+00  0.00000000E+00
  1.60000000E+01  1.00800000E+00  1.00800000E+00  0.00000000E+00  1.60000000E+01
  1.00800000E+00  1.00800000E+00  0.00000000E+00  1.60000000E+01  1.00800000E+00
  1.00800000E+00  0.00000000E+00  1.60000000E+01  1.00800000E+00  1.00800000E+00
  0.00000000E+00  1.60000000E+01  1.00800000E+00  1.00800000E+00  0.00000000E+00
  1.60000000E+01  1.00800000E+00  1.00800000E+00  0.00000000E+00  1.60000000E+01
  1.00800000E+00  1.00800000E+00  0.00000000E+00  1.60000000E+01  1.00800000E+00
  1.00800000E+00  0.00000000E+00  1.60000000E+01  1.00800000E+00  1.00800000E+00
  0.00000000E+00  1.60000000E+01  1.00800000E+00  1.00800000E+00  0.00000000E+00
  1.60000000E+01  1.00800000E+00  1.00800000E+00  0.00000000E+00  1.60000000E+01
  1.00800000E+00  1.00800000E+00  0.00000000E+00  1.60000000E+01  1.00800000E+00
  1.00800000E+00  0.00000000E+00  1.60000000E+01  1.00800000E+00  1.00800000E+00
  0.00000000E+00  1.60000000E+01  1.00800000E+00  1.00800000E+00  0.00000000E+00
  1.60000000E+01  1.00800000E+00  1.00800000E+00  0.00000000E+00  1.60000000E+01
  1.00800000E+00  1.00800000E+00  0.00000000E+00  1.60000000E+01  1.00800000E+00
  1.00800000E+00  0.00000000E+00  1.60000000E+01  1.00800000E+00  1.00800000E+00
  0.00000000E+00  1.60000000E+01  1.00800000E+00  1.00800000E+00  0.00000000E+00
  1.60000000E+01  1.00800000E+00  1.00800000E+00  0.00000000E+00  1.60000000E+01
  1.00800000E+00  1.00800000E+00  0.00000000E+00  1.60000000E+01  1.00800000E+00
  1.00800000E+00  0.00000000E+00  1.60000000E+01  1.00800000E+00  1.00800000E+00
  0.00000000E+00  1.60000000E+01  1.00800000E+00  1.00800000E+00  0.00000000E+00
  1.60000000E+01  1.00800000E+00  1.00800000E+00  0.00000000E+00  1.60000000E+01
  1.00800000E+00  1.00800000E+00  0.00000000E+00  1.60000000E+01  1.00800000E+00
  1.00800000E+00  0.00000000E+00  1.60000000E+01  1.00800000E+00  1.00800000E+00
  0.00000000E+00  1.60000000E+01  1.00800000E+00  1.00800000E+00  0.00000000E+00
  1.60000000E+01  1.00800000E+00  1.00800000E+00  0.00000000E+00  1.60000000E+01
  1.00800000E+00  1.00800000E+00  0.00000000E+00  1.60000000E+01  1.00800000E+00
  1.00800000E+00  0.00000000E+00  1.60000000E+01  1.00800000E+00  1.00800000E+00
  0.00000000E+00  1.60000000E+01  1.00800000E+00  1.00800000E+00  0.00000000E+00
  1.60000000E+01  1.00800000E+00  1.00800000E+00  0.00000000E+00  1.60000000E+01
  1.00800000E+00  1.00800000E+00  0.00000000E+00  1.60000000E+01  1.00800000E+00
  1.00800000E+00  0.00000000E+00  1.60000000E+01  1.00800000E+00  1.00800000E+00
  0.00000000E+00  1.60000000E+01  1.00800000E+00  1.00800000E+00  0.00000000E+00
  1.60000000E+01  1.00800000E+00  1.00800000E+00  0.00000000E+00  1.60000000E+01
  1.00800000E+00  1.00800000E+00  0.00000000E+00  1.60000000E+01  1.00800000E+00
  1.00800000E+00  0.00000000E+00  1.60000000E+01  1.00800000E+00  1.00800000E+00
  0.00000000E+00  1.60000000E+01  1.00800000E+00  1.00800000E+00  0.00000000E+00
  1.60000000E+01  1.00800000E+00  1.00800000E+00  0.00000000E+00  1.60000000E+01
  1.00800000E+00  1.00800000E+00  0.00000000E+00  1.60000000E+01  1.00800000E+00
  1.00800000E+00  0.00000000E+00  1.60000000E+01  1.00800000E+00  1.00800000E+00
  0.00000000E+00  1.60000000E+01  1.00800000E+00  1.00800000E+00  0.00000000E+00
  1.60000000E+01  1.00800000E+00  1.00800000E+00  0.00000000E+00  1.60000000E+01
  1.00800000E+00  1.00800000E+00  0.00000000E+00  1.60000000E+01  1.00800000E+00
  1.00800000E+00  0.00000000E+00  1.60000000E+01  1.00800000E+00  1.00800000E+00
  0.00000000E+00  1.60000000E+01  1.00800000E+00  1.00800000E+00  0.00000000E+00
  1.60000000E+01  1.00800000E+00  1.00800000E+00  0.00000000E+00  1.60000000E+01
  1.00800000E+00  1.00800000E+00  0.00000000E+00  1.60000000E+01  1.00800000E+00
  1.00800000E+00  0.00000000E+00  1.60000000E+01  1.00800000E+00  1.00800000E+00
  0.00000000E+00  1.60000000E+01  1.00800000E+00  1.00800000E+00  0.00000000E+00
  1.60000000E+01  1.00800000E+00  1.00800000E+00  0.00000000E+00  1.60000000E+01
  1.00800000E+00  1.00800000E+00  0.00000000E+00  1.60000000E+01  1.00800000E+00
  1.00800000E+00  0.00000000E+00  1.60000000E+01  1.00800000E+00  1.00800000E+00
  0.00000000E+00  1.60000000E+01  1.00800000E+00  1.00800000E+00  0.00000000E+00
  1.60000000E+01  1.00800000E+00  1.00800000E+00  0.00000000E+00  1.60000000E+01
  1.00800000E+00  1.00800000E+00  0.00000000E+00  1.60000000E+01  1.00800000E+00
  1.00800000E+00  0.00000000E+00  1.60000000E+01  1.00800000E+00  1.00800000E+00
  0.00000000E+00  1.60000000E+01  1.00800000E+00  1.00800000E+00  0.00000000E+00
  1.60000000E+01  1.00800000E+00  1.00800000E+00  0.00000000E+00  1.60000000E+01
  1.00800000E+00  1.00800000E+00  0.00000000E+00  1.60000000E+01  1.00800000E+00
  1.00800000E+00  0.00000000E+00  1.60000000E+01  1.00800000E+00  1.00800000E+00
  0.00000000E+00  1.60000000E+01  1.00800000E+00  1.00800000E+00  0.00000000E+00
  1.60000000E+01  1.00800000E+00  1.00800000E+00  0.00000000E+00  1.60000000E+01
  1.00800000E+00  1.00800000E+00  0.00000000E+00  1.60000000E+01  1.00800000E+00
  1.00800000E+00  0.00000000E+00  1.60000000E+01  1.00800000E+00  1.00800000E+00
  0.00000000E+00  1.60000000E+01  1.00800000E+00  1.00800000E+00  0.00000000E+00
  1.60000000E+01  1.00800000E+00  1.00800000E+00  0.00000000E+00  1.60000000E+01
  1.00800000E+00  1.00800000E+00  0.00000000E+00  1.60000000E+01  1.00800000E+00
  1.00800000E+00  0.00000000E+00  1.60000000E+01  1.00800000E+00  1.00800000E+00
  0.00000000E+00  1.60000000E+01  1.00800000E+00  1.00800000E+00  0.00000000E+00
  1.60000000E+01  1.00800000E+00  1.00800000E+00  0.00000000E+00  1.60000000E+01
  1.00800000E+00  1.00800000E+00  0.00000000E+00  1.60000000E+01  1.00800000E+00
  1.00800000E+00  0.00000000E+00  1.60000000E+01  1.00800000E+00  1.00800000E+00
  0.00000000E+00  1.60000000E+01  1.00800000E+00  1.00800000E+00  0.00000000E+00
  1.60000000E+01  1.00800000E+00  1.00800000E+00  0.00000000E+00  1.60000000E+01
  1.00800000E+00  1.00800000E+00  0.00000000E+00  1.60000000E+01  1.00800000E+00
  1.00800000E+00  0.00000000E+00  1.60000000E+01  1.00800000E+00  1.00800000E+00
  0.00000000E+00  1.60000000E+01  1.00800000E+00  1.00800000E+00  0.00000000E+00
  1.60000000E+01  1.00800000E+00  1.00800000E+00  0.00000000E+00  1.60000000E+01
  1.00800000E+00  1.00800000E+00  0.00000000E+00  1.60000000E+01  1.00800000E+00
  1.00800000E+00  0.00000000E+00  1.60000000E+01  1.00800000E+00  1.00800000E+00
  0.00000000E+00  1.60000000E+01  1.00800000E+00  1.00800000E+00  0.00000000E+00
  1.60000000E+01  1.00800000E+00  1.00800000E+00  0.00000000E+00  1.60000000E+01
  1.00800000E+00  1.00800000E+00  0.00000000E+00  1.60000000E+01  1.00800000E+00
  1.00800000E+00  0.00000000E+00  1.60000000E+01  1.00800000E+00  1.00800000E+00
  0.00000000E+00  1.60000000E+01  1.00800000E+00  1.00800000E+00  0.00000000E+00
  1.60000000E+01  1.00800000E+00  1.00800000E+00  0.00000000E+00  1.60000000E+01
  1.00800000E+00  1.00800000E+00  0.00000000E+00  1.60000000E+01  1.00800000E+00
  1.00800000E+00  0.00000000E+00  1.60000000E+01  1.00800000E+00  1.00800000E+00
  0.00000000E+00  1.60000000E+01  1.00800000E+00  1.00800000E+00  0.00000000E+00
  1.60000000E+01  1.00800000E+00  1.00800000E+00  0.00000000E+00  1.60000000E+01
  1.00800000E+00  1.00800000E+00  0.00000000E+00  1.60000000E+01  1.00800000E+00
  1.00800000E+00  0.00000000E+00  1.60000000E+01  1.00800000E+00  1.00800000E+00
  0.00000000E+00  1.60000000E+01  1.00800000E+00  1.00800000E+00  0.00000000E+00
  1.60000000E+01  1.00800000E+00  1.00800000E+00  0.00000000E+00  1.60000000E+01
  1.00800000E+00  1.00800000E+00  0.00000000E+00  1.60000000E+01  1.00800000E+00
  1.00800000E+00  0.00000000E+00  1.60000000E+01  1.00800000E+00  1.00800000E+00
  0.00000000E+00  1.60000000E+01  1.00800000E+00  1.00800000E+00  0.00000000E+00
  1.60000000E+01  1.00800000E+00  1.00800000E+00  0.00000000E+00  1.60000000E+01
  1.00800000E+00  1.00800000E+00  0.00000000E+00  1.60000000E+01  1.00800000E+00
  1.00800000E+00  0.00000000E+00  1.60000000E+01  1.00800000E+00  1.00800000E+00
  0.00000000E+00  1.60000000E+01  1.00800000E+00  1.00800000E+00  0.00000000E+00
  1.60000000E+01  1.00800000E+00  1.00800000E+00  0.00000000E+00  1.60000000E+01
  1.00800000E+00  1.00800000E+00  0.00000000E+00  1.60000000E+01  1.00800000E+00
  1.00800000E+00  0.00000000E+00  1.60000000E+01  1.00800000E+00  1.00800000E+00
  0.00000000E+00  1.60000000E+01  1.00800000E+00  1.00800000E+00  0.00000000E+00
  1.60000000E+01  1.00800000E+00  1.00800000E+00  0.00000000E+00  1.60000000E+01
  1.00800000E+00  1.00800000E+00  0.00000000E+00  1.60000000E+01  1.00800000E+00
  1.00800000E+00  0.00000000E+00  1.60000000E+01  1.00800000E+00  1.00800000E+00
  0.00000000E+00  1.60000000E+01  1.00800000E+00  1.00800000E+00  0.00000000E+00
  1.60000000E+01  1.00800000E+00  1.00800000E+00  0.00000000E+00  1.60000000E+01
  1.00800000E+00  1.00800000E+00  0.00000000E+00  1.60000000E+01  1.00800000E+00
  1.00800000E+00  0.00000000E+00  1.60000000E+01  1.00800000E+00  1.00800000E+00
  0.00000000E+00  1.60000000E+01  1.00800000E+00  1.00800000E+00  0.00000000E+00
  1.60000000E+01  1.00800000E+00  1.00800000E+00  0.00000000E+00  1.60000000E+01
  1.00800000E+00  1.00800000E+00  0.00000000E+00  1.60000000E+01  1.00800000E+00
  1.00800000E+00  0.00000000E+00  1.60000000E+01  1.00800000E+00  1.00800000E+00
  0.00000000E+00  1.60000000E+01  1.00800000E+00  1.00800000E+00  0.00000000E+00
  1.60000000E+01  1.00800000E+00  1.00800000E+00  0.00000000E+00  1.60000000E+01
  1.00800000E+00  1.00800000E+00  0.00000000E+00  1.60000000E+01  1.00800000E+00
  1.00800000E+00  0.00000000E+00  1.60000000E+01  1.00800000E+00  1.00800000E+00
  0.00000000E+00  1.60000000E+01  1.00800000E+00  1.00800000E+00  0.00000000E+00
  1.60000000E+01  1.00800000E+00  1.00800000E+00  0.00000000E+00  1.60000000E+01
  1.00800000E+00  1.00800000E+00  0.00000000E+00  1.60000000E+01  1.00800000E+00
  1.00800000E+00  0.00000000E+00  1.60000000E+01  1.00800000E+00  1.00800000E+00
  0.00000000E+00  1.60000000E+01  1.00800000E+00  1.00800000E+00  0.00000000E+00
  1.60000000E+01  1.00800000E+00  1.00800000E+00  0.00000000E+00  1.60000000E+01
  1.00800000E+00  1.00800000E+00  0.00000000E+00  1.60000000E+01  1.00800000E+00
  1.00800000E+00  0.00000000E+00  1.60000000E+01  1.00800000E+00  1.00800000E+00
  0.00000000E+00  1.60000000E+01  1.00800000E+00  1.00800000E+00  0.00000000E+00
  1.60000000E+01  1.00800000E+00  1.00800000E+00  0.00000000E+00  1.60000000E+01
  1.00800000E+00  1.00800000E+00  0.00000000E+00  1.60000000E+01  1.00800000E+00
  1.00800000E+00  0.00000000E+00  1.60000000E+01  1.00800000E+00  1.00800000E+00
  0.00000000E+00  1.60000000E+01  1.00800000E+00  1.00800000E+00  0.00000000E+00
  1.60000000E+01  1.00800000E+00  1.00800000E+00  0.00000000E+00  1.60000000E+01
  1.00800000E+00  1.00800000E+00  0.00000000E+00  1.60000000E+01  1.00800000E+00
  1.00800000E+00  0.00000000E+00  1.60000000E+01  1.00800000E+00  1.00800000E+00
  0.00000000E+00  1.60000000E+01  1.00800000E+00  1.00800000E+00  0.00000000E+00
  1.60000000E+01  1.00800000E+00  1.00800000E+00  0.00000000E+00  1.60000000E+01
  1.00800000E+00  1.00800000E+00  0.00000000E+00  1.60000000E+01  1.00800000E+00
  1.00800000E+00  0.00000000E+00  1.60000000E+01  1.00800000E+00  1.00800000E+00
  0.00000000E+00  1.60000000E+01  1.00800000E+00  1.00800000E+00  0.00000000E+00
  1.60000000E+01  1.00800000E+00  1.00800000E+00  0.00000000E+00  1.60000000E+01
  1.00800000E+00  1.00800000E+00  0.00000000E+00  1.60000000E+01  1.00800000E+00
  1.00800000E+00  0.00000000E+00  1.60000000E+01  1.00800000E+00  1.00800000E+00
  0.00000000E+00  1.60000000E+01  1.00800000E+00  1.00800000E+00  0.00000000E+00
  1.60000000E+01  1.00800000E+00  1.00800000E+00  0.00000000E+00  1.60000000E+01
  1.00800000E+00  1.00800000E+00  0.00000000E+00  1.60000000E+01  1.00800000E+00
  1.00800000E+00  0.00000000E+00  1.60000000E+01  1.00800000E+00  1.00800000E+00
  0.00000000E+00  1.60000000E+01  1.00800000E+00  1.00800000E+00  0.00000000E+00
  1.60000000E+01  1.00800000E+00  1.00800000E+00  0.00000000E+00  1.60000000E+01
  1.00800000E+00  1.00800000E+00  0.00000000E+00  1.60000000E+01  1.00800000E+00
  1.00800000E+00  0.00000000E+00  1.60000000E+01  1.00800000E+00  1.00800000E+00
  0.00000000E+00  1.60000000E+01  1.00800000E+00  1.00800000E+00  0.00000000E+00
  1.60000000E+01  1.00800000E+00  1.00800000E+00  0.00000000E+00  1.60000000E+01
  1.00800000E+00  1.00800000E+00  0.00000000E+00  1.60000000E+01  1.00800000E+00
  1.00800000E+00  0.00000000E+00  1.60000000E+01  1.00800000E+00  1.00800000E+00
  0.00000000E+00  1.60000000E+01  1.00800000E+00  1.00800000E+00  0.00000000E+00
  1.60000000E+01  1.00800000E+00  1.00800000E+00  0.00000000E+00  1.60000000E+01
  1.00800000E+00  1.00800000E+00  0.00000000E+00  1.60000000E+01  1.00800000E+00
  1.00800000E+00  0.00000000E+00  1.60000000E+01  1.00800000E+00  1.00800000E+00
  0.00000000E+00  1.60000000E+01  1.00800000E+00  1.00800000E+00  0.00000000E+00
  1.60000000E+01  1.00800000E+00  1.00800000E+00  0.00000000E+00  1.60000000E+01
  1.00800000E+00  1.00800000E+00  0.00000000E+00  1.60000000E+01  1.00800000E+00
  1.00800000E+00  0.00000000E+00  1.60000000E+01  1.00800000E+00  1.00800000E+00
  0.00000000E+00  1.60000000E+01  1.00800000E+00  1.00800000E+00  0.00000000E+00
  1.60000000E+01  1.00800000E+00  1.00800000E+00  0.00000000E+00  1.60000000E+01
  1.00800000E+00  1.00800000E+00  0.00000000E+00  1.60000000E+01  1.00800000E+00
  1.00800000E+00  0.00000000E+00  1.60000000E+01  1.00800000E+00  1.00800000E+00
  0.00000000E+00  1.60000000E+01  1.00800000E+00  1.00800000E+00  0.00000000E+00
  1.60000000E+01  1.00800000E+00  1.00800000E+00  0.00000000E+00  1.60000000E+01
  1.00800000E+00  1.00800000E+00  0.00000000E+00  1.60000000E+01  1.00800000E+00
  1.00800000E+00  0.00000000E+00  1.60000000E+01  1.00800000E+00  1.00800000E+00
  0.00000000E+00  1.60000000E+01  1.00800000E+00  1.00800000E+00  0.00000000E+00
  1.60000000E+01  1.00800000E+00  1.00800000E+00  0.00000000E+00  1.60000000E+01
  1.00800000E+00  1.00800000E+00  0.00000000E+00  1.60000000E+01  1.00800000E+00
  1.00800000E+00  0.00000000E+00  1.60000000E+01  1.00800000E+00  1.00800000E+00
  0.00000000E+00  1.60000000E+01  1.00800000E+00  1.00800000E+00  0.00000000E+00
  1.60000000E+01  1.00800000E+00  1.00800000E+00  0.00000000E+00  1.60000000E+01
  1.00800000E+00  1.00800000E+00  0.00000000E+00  1.60000000E+01  1.00800000E+00
  1.00800000E+00  0.00000000E+00  1.60000000E+01  1.00800000E+00  1.00800000E+00
  0.00000000E+00  1.60000000E+01  1.00800000E+00  1.00800000E+00  0.00000000E+00
  1.60000000E+01  1.00800000E+00  1.00800000E+00  0.00000000E+00  1.60000000E+01
  1.00800000E+00  1.00800000E+00  0.00000000E+00  1.60000000E+01  1.00800000E+00
  1.00800000E+00  0.00000000E+00  1.60000000E+01  1.00800000E+00  1.00800000E+00
  0.00000000E+00  1.60000000E+01  1.00800000E+00  1.00800000E+00  0.00000000E+00
  1.60000000E+01  1.00800000E+00  1.00800000E+00  0.00000000E+00  1.60000000E+01
  1.00800000E+00  1.00800000E+00  0.00000000E+00  1.60000000E+01  1.00800000E+00
  1.00800000E+00  0.00000000E+00  1.60000000E+01  1.00800000E+00  1.00800000E+00
  0.00000000E+00  1.60000000E+01  1.00800000E+00  1.00800000E+00  0.00000000E+00
  1.60000000E+01  1.00800000E+00  1.00800000E+00  0.00000000E+00  1.60000000E+01
  1.00800000E+00  1.00800000E+00  0.00000000E+00  1.60000000E+01  1.00800000E+00
  1.00800000E+00  0.00000000E+00  1.60000000E+01  1.00800000E+00  1.00800000E+00
  0.00000000E+00  1.60000000E+01  1.00800000E+00  1.00800000E+00  0.00000000E+00
  1.60000000E+01  1.00800000E+00  1.00800000E+00  0.00000000E+00  1.60000000E+01
  1.00800000E+00  1.00800000E+00  0.00000000E+00  1.60000000E+01  1.00800000E+00
  1.00800000E+00  0.00000000E+00  1.60000000E+01  1.00800000E+00  1.00800000E+00
  0.00000000E+00  1.60000000E+01  1.00800000E+00  1.00800000E+00  0.00000000E+00
  1.60000000E+01  1.00800000E+00  1.00800000E+00  0.00000000E+00  1.60000000E+01
  1.00800000E+00  1.00800000E+00  0.00000000E+00  1.60000000E+01  1.00800000E+00
  1.00800000E+00  0.00000000E+00  1.60000000E+01  1.00800000E+00  1.00800000E+00
  0.00000000E+00  1.60000000E+01  1.00800000E+00  1.00800000E+00  0.00000000E+00
  1.60000000E+01  1.00800000E+00  1.00800000E+00  0.00000000E+00  1.60000000E+01
  1.00800000E+00  1.00800000E+00  0.00000000E+00  1.60000000E+01  1.00800000E+00
  1.00800000E+00  0.00000000E+00  1.60000000E+01  1.00800000E+00  1.00800000E+00
  0.00000000E+00  1.60000000E+01  1.00800000E+00  1.00800000E+00  0.00000000E+00
  1.60000000E+01  1.00800000E+00  1.00800000E+00  0.00000000E+00  1.60000000E+01
  1.00800000E+00  1.00800000E+00  0.00000000E+00  1.60000000E+01  1.00800000E+00
  1.00800000E+00  0.00000000E+00  1.60000000E+01  1.00800000E+00  1.00800000E+00
  0.00000000E+00  1.60000000E+01  1.00800000E+00  1.00800000E+00  0.00000000E+00
  1.60000000E+01  1.00800000E+00  1.00800000E+00  0.00000000E+00  1.60000000E+01
  1.00800000E+00  1.00800000E+00  0.00000000E+00  1.60000000E+01  1.00800000E+00
  1.00800000E+00  0.00000000E+00  1.60000000E+01  1.00800000E+00  1.00800000E+00
  0.00000000E+00  1.60000000E+01  1.00800000E+00  1.00800000E+00  0.00000000E+00
  1.60000000E+01  1.00800000E+00  1.00800000E+00  0.00000000E+00  1.60000000E+01
  1.00800000E+00  1.00800000E+00  0.00000000E+00  1.60000000E+01  1.00800000E+00
  1.00800000E+00  0.00000000E+00  1.60000000E+01  1.00800000E+00  1.00800000E+00
  0.00000000E+00  1.60000000E+01  1.00800000E+00  1.00800000E+00  0.00000000E+00
  1.60000000E+01  1.00800000E+00  1.00800000E+00  0.00000000E+00  1.60000000E+01
  1.00800000E+00  1.00800000E+00  0.00000000E+00  1.60000000E+01  1.00800000E+00
  1.00800000E+00  0.00000000E+00  1.60000000E+01  1.00800000E+00  1.00800000E+00
  0.00000000E+00  1.60000000E+01  1.00800000E+00  1.00800000E+00  0.00000000E+00
  1.60000000E+01  1.00800000E+00  1.00800000E+00  0.00000000E+00  1.60000000E+01
  1.00800000E+00  1.00800000E+00  0.00000000E+00  1.60000000E+01  1.00800000E+00
  1.00800000E+00  0.00000000E+00  1.60000000E+01  1.00800000E+00  1.00800000E+00
  0.00000000E+00  1.60000000E+01  1.00800000E+00  1.00800000E+00  0.00000000E+00
  1.60000000E+01  1.00800000E+00  1.00800000E+00  0.00000000E+00  1.60000000E+01
  1.00800000E+00  1.00800000E+00  0.00000000E+00  1.60000000E+01  1.00800000E+00
  1.00800000E+00  0.00000000E+00  1.60000000E+01  1.00800000E+00  1.00800000E+00
  0.00000000E+00  1.60000000E+01  1.00800000E+00  1.00800000E+00  0.00000000E+00
  1.60000000E+01  1.00800000E+00  1.00800000E+00  0.00000000E+00  1.60000000E+01
  1.00800000E+00  1.00800000E+00  0.00000000E+00  1.60000000E+01  1.00800000E+00
  1.00800000E+00  0.00000000E+00  1.60000000E+01  1.00800000E+00  1.00800000E+00
  0.00000000E+00  1.60000000E+01  1.00800000E+00  1.00800000E+00  0.00000000E+00
  1.60000000E+01  1.00800000E+00  1.00800000E+00  0.00000000E+00  1.60000000E+01
  1.00800000E+00  1.00800000E+00  0.00000000E+00  1.60000000E+01  1.00800000E+00
  1.00800000E+00  0.00000000E+00  1.60000000E+01  1.00800000E+00  1.00800000E+00
  0.00000000E+00  1.60000000E+01  1.00800000E+00  1.00800000E+00  0.00000000E+00
  1.60000000E+01  1.00800000E+00  1.00800000E+00  0.00000000E+00  1.60000000E+01
  1.00800000E+00  1.00800000E+00  0.00000000E+00  1.60000000E+01  1.00800000E+00
  1.00800000E+00  0.00000000E+00  1.60000000E+01  1.00800000E+00  1.00800000E+00
  0.00000000E+00  1.60000000E+01  1.00800000E+00  1.00800000E+00  0.00000000E+00
  1.60000000E+01  1.00800000E+00  1.00800000E+00  0.00000000E+00  1.60000000E+01
  1.00800000E+00  1.00800000E+00  0.00000000E+00  1.60000000E+01  1.00800000E+00
  1.00800000E+00  0.00000000E+00  1.60000000E+01  1.00800000E+00  1.00800000E+00
  0.00000000E+00  1.60000000E+01  1.00800000E+00  1.00800000E+00  0.00000000E+00
  1.60000000E+01  1.00800000E+00  1.00800000E+00  0.00000000E+00  1.60000000E+01
  1.00800000E+00  1.00800000E+00  0.00000000E+00  1.60000000E+01  1.00800000E+00
  1.00800000E+00  0.00000000E+00  1.60000000E+01  1.00800000E+00  1.00800000E+00
  0.00000000E+00  1.60000000E+01  1.00800000E+00  1.00800000E+00  0.00000000E+00
  1.60000000E+01  1.00800000E+00  1.00800000E+00  0.00000000E+00  1.60000000E+01
  1.00800000E+00  1.00800000E+00  0.00000000E+00  1.60000000E+01  1.00800000E+00
  1.00800000E+00  0.00000000E+00  1.60000000E+01  1.00800000E+00  1.00800000E+00
  0.00000000E+00  1.60000000E+01  1.00800000E+00  1.00800000E+00  0.00000000E+00
  1.60000000E+01  1.00800000E+00  1.00800000E+00  0.00000000E+00  1.60000000E+01
  1.00800000E+00  1.00800000E+00  0.00000000E+00  1.60000000E+01  1.00800000E+00
  1.00800000E+00  0.00000000E+00  1.60000000E+01  1.00800000E+00  1.00800000E+00
  0.00000000E+00  1.60000000E+01  1.00800000E+00  1.00800000E+00  0.00000000E+00
  1.60000000E+01  1.00800000E+00  1.00800000E+00  0.00000000E+00  1.60000000E+01
  1.00800000E+00  1.00800000E+00  0.00000000E+00  1.60000000E+01  1.00800000E+00
  1.00800000E+00  0.00000000E+00  1.60000000E+01  1.00800000E+00  1.00800000E+00
  0.00000000E+00  1.60000000E+01  1.00800000E+00  1.00800000E+00  0.00000000E+00
  1.60000000E+01  1.00800000E+00  1.00800000E+00  0.00000000E+00  1.60000000E+01
  1.00800000E+00  1.00800000E+00  0.00000000E+00  1.60000000E+01  1.00800000E+00
  1.00800000E+00  0.00000000E+00  1.60000000E+01  1.00800000E+00  1.00800000E+00
  0.00000000E+00  1.60000000E+01  1.00800000E+00  1.00800000E+00  0.00000000E+00
  1.60000000E+01  1.00800000E+00  1.00800000E+00  0.00000000E+00  1.60000000E+01
  1.00800000E+00  1.00800000E+00  0.00000000E+00  1.60000000E+01  1.00800000E+00
  1.00800000E+00  0.00000000E+00  1.60000000E+01  1.00800000E+00  1.00800000E+00
  0.00000000E+00  1.60000000E+01  1.00800000E+00  1.00800000E+00  0.00000000E+00
  1.60000000E+01  1.00800000E+00  1.00800000E+00  0.00000000E+00  1.60000000E+01
  1.00800000E+00  1.00800000E+00  0.00000000E+00  1.60000000E+01  1.00800000E+00
  1.00800000E+00  0.00000000E+00  1.60000000E+01  1.00800000E+00  1.00800000E+00
  0.00000000E+00  1.60000000E+01  1.00800000E+00  1.00800000E+00  0.00000000E+00
  1.60000000E+01  1.00800000E+00  1.00800000E+00  0.00000000E+00  1.60000000E+01
  1.00800000E+00  1.00800000E+00  0.00000000E+00  1.60000000E+01  1.00800000E+00
  1.00800000E+00  0.00000000E+00  1.60000000E+01  1.00800000E+00  1.00800000E+00
  0.00000000E+00  1.60000000E+01  1.00800000E+00  1.00800000E+00  0.00000000E+00
  1.60000000E+01  1.00800000E+00  1.00800000E+00  0.00000000E+00  1.60000000E+01
  1.00800000E+00  1.00800000E+00  0.00000000E+00  1.60000000E+01  1.00800000E+00
  1.00800000E+00  0.00000000E+00  1.60000000E+01  1.00800000E+00  1.00800000E+00
  0.00000000E+00  1.60000000E+01  1.00800000E+00  1.00800000E+00  0.00000000E+00
  1.60000000E+01  1.00800000E+00  1.00800000E+00  0.00000000E+00  1.60000000E+01
  1.00800000E+00  1.00800000E+00  0.00000000E+00  1.60000000E+01  1.00800000E+00
  1.00800000E+00  0.00000000E+00  1.60000000E+01  1.00800000E+00  1.00800000E+00
  0.00000000E+00  1.60000000E+01  1.00800000E+00  1.00800000E+00  0.00000000E+00
  1.60000000E+01  1.00800000E+00  1.00800000E+00  0.00000000E+00  1.60000000E+01
  1.00800000E+00  1.00800000E+00  0.00000000E+00  1.60000000E+01  1.00800000E+00
  1.00800000E+00  0.00000000E+00  1.60000000E+01  1.00800000E+00  1.00800000E+00
  0.00000000E+00  1.60000000E+01  1.00800000E+00  1.00800000E+00  0.00000000E+00
  1.60000000E+01  1.00800000E+00  1.00800000E+00  0.00000000E+00  1.60000000E+01
  1.00800000E+00  1.00800000E+00  0.00000000E+00  1.60000000E+01  1.00800000E+00
  1.00800000E+00  0.00000000E+00  1.60000000E+01  1.00800000E+00  1.00800000E+00
  0.00000000E+00  1.60000000E+01  1.00800000E+00  1.00800000E+00  0.00000000E+00
  1.60000000E+01  1.00800000E+00  1.00800000E+00  0.00000000E+00  1.60000000E+01
  1.00800000E+00  1.00800000E+00  0.00000000E+00  1.60000000E+01  1.00800000E+00
  1.00800000E+00  0.00000000E+00  1.60000000E+01  1.00800000E+00  1.00800000E+00
  0.00000000E+00  1.60000000E+01  1.00800000E+00  1.00800000E+00  0.00000000E+00
  1.60000000E+01  1.00800000E+00  1.00800000E+00  0.00000000E+00  1.60000000E+01
  1.00800000E+00  1.00800000E+00  0.00000000E+00  1.60000000E+01  1.00800000E+00
  1.00800000E+00  0.00000000E+00  1.60000000E+01  1.00800000E+00  1.00800000E+00
  0.00000000E+00  1.60000000E+01  1.00800000E+00  1.00800000E+00  0.00000000E+00
  1.60000000E+01  1.00800000E+00  1.00800000E+00  0.00000000E+00  1.60000000E+01
  1.00800000E+00  1.00800000E+00  0.00000000E+00  1.60000000E+01  1.00800000E+00
  1.00800000E+00  0.00000000E+00  1.60000000E+01  1.00800000E+00  1.00800000E+00
  0.00000000E+00  1.60000000E+01  1.00800000E+00  1.00800000E+00  0.00000000E+00
  1.60000000E+01  1.00800000E+00  1.00800000E+00  0.00000000E+00  1.60000000E+01
  1.00800000E+00  1.00800000E+00  0.00000000E+00  1.60000000E+01  1.00800000E+00
  1.00800000E+00  0.00000000E+00  1.60000000E+01  1.00800000E+00  1.00800000E+00
  0.00000000E+00  1.60000000E+01  1.00800000E+00  1.00800000E+00  0.00000000E+00
  1.60000000E+01  1.00800000E+00  1.00800000E+00  0.00000000E+00  1.60000000E+01
  1.00800000E+00  1.00800000E+00  0.00000000E+00  1.60000000E+01  1.00800000E+00
  1.00800000E+00  0.00000000E+00  1.60000000E+01  1.00800000E+00  1.00800000E+00
  0.00000000E+00  1.60000000E+01  1.00800000E+00  1.00800000E+00  0.00000000E+00
  1.60000000E+01  1.00800000E+00  1.00800000E+00  0.00000000E+00  1.60000000E+01
  1.00800000E+00  1.00800000E+00  0.00000000E+00  1.60000000E+01  1.00800000E+00
  1.00800000E+00  0.00000000E+00  1.60000000E+01  1.00800000E+00  1.00800000E+00
  0.00000000E+00  1.60000000E+01  1.00800000E+00  1.00800000E+00  0.00000000E+00
  1.60000000E+01  1.00800000E+00  1.00800000E+00  0.00000000E+00  1.60000000E+01
  1.00800000E+00  1.00800000E+00  0.00000000E+00  1.60000000E+01  1.00800000E+00
  1.00800000E+00  0.00000000E+00  1.60000000E+01  1.00800000E+00  1.00800000E+00
  0.00000000E+00  1.60000000E+01  1.00800000E+00  1.00800000E+00  0.00000000E+00
  1.60000000E+01  1.00800000E+00  1.00800000E+00  0.00000000E+00  1.60000000E+01
  1.00800000E+00  1.00800000E+00  0.00000000E+00  1.60000000E+01  1.00800000E+00
  1.00800000E+00  0.00000000E+00  1.60000000E+01  1.00800000E+00  1.00800000E+00
  0.00000000E+00  1.60000000E+01  1.00800000E+00  1.00800000E+00  0.00000000E+00
  1.60000000E+01  1.00800000E+00  1.00800000E+00  0.00000000E+00  1.60000000E+01
  1.00800000E+00  1.00800000E+00  0.00000000E+00  1.60000000E+01  1.00800000E+00
  1.00800000E+00  0.00000000E+00  1.60000000E+01  1.00800000E+00  1.00800000E+00
  0.00000000E+00  1.60000000E+01  1.00800000E+00  1.00800000E+00  0.00000000E+00
  1.60000000E+01  1.00800000E+00  1.00800000E+00  0.00000000E+00  1.60000000E+01
  1.00800000E+00  1.00800000E+00  0.00000000E+00  1.60000000E+01  1.00800000E+00
  1.00800000E+00  0.00000000E+00  1.60000000E+01  1.00800000E+00  1.00800000E+00
  0.00000000E+00  1.60000000E+01  1.00800000E+00  1.00800000E+00  0.00000000E+00
  1.60000000E+01  1.00800000E+00  1.00800000E+00  0.00000000E+00  1.60000000E+01
  1.00800000E+00  1.00800000E+00  0.00000000E+00  1.60000000E+01  1.00800000E+00
  1.00800000E+00  0.00000000E+00  1.60000000E+01  1.00800000E+00  1.00800000E+00
  0.00000000E+00  1.60000000E+01  1.00800000E+00  1.00800000E+00  0.00000000E+00
  1.60000000E+01  1.00800000E+00  1.00800000E+00  0.00000000E+00  1.60000000E+01
  1.00800000E+00  1.00800000E+00  0.00000000E+00  1.60000000E+01  1.00800000E+00
  1.00800000E+00  0.00000000E+00  1.60000000E+01  1.00800000E+00  1.00800000E+00
  0.00000000E+00  1.60000000E+01  1.00800000E+00  1.00800000E+00  0.00000000E+00
  1.60000000E+01  1.00800000E+00  1.00800000E+00  0.00000000E+00  1.60000000E+01
  1.00800000E+00  1.00800000E+00  0.00000000E+00  1.60000000E+01  1.00800000E+00
  1.00800000E+00  0.00000000E+00  1.60000000E+01  1.00800000E+00  1.00800000E+00
  0.00000000E+00  1.60000000E+01  1.00800000E+00  1.00800000E+00  0.00000000E+00
  1.60000000E+01  1.00800000E+00  1.00800000E+00  0.00000000E+00  1.60000000E+01
  1.00800000E+00  1.00800000E+00  0.00000000E+00  1.60000000E+01  1.00800000E+00
  1.00800000E+00  0.00000000E+00  1.60000000E+01  1.00800000E+00  1.00800000E+00
  0.00000000E+00  1.60000000E+01  1.00800000E+00  1.00800000E+00  0.00000000E+00
  1.60000000E+01  1.00800000E+00  1.00800000E+00  0.00000000E+00  1.60000000E+01
  1.00800000E+00  1.00800000E+00  0.00000000E+00  1.60000000E+01  1.00800000E+00
  1.00800000E+00  0.00000000E+00  1.60000000E+01  1.00800000E+00  1.00800000E+00
  0.00000000E+00  1.60000000E+01  1.00800000E+00  1.00800000E+00  0.00000000E+00
  1.60000000E+01  1.00800000E+00  1.00800000E+00  0.00000000E+00  1.60000000E+01
  1.00800000E+00  1.00800000E+00  0.00000000E+00  1.60000000E+01  1.00800000E+00
  1.00800000E+00  0.00000000E+00
%FLAG ATOM_TYPE_INDEX                                                           
%FORMAT(10I8)                                                                   
       1       2       1       2       1       2       1       2       1       2
       3       4       5       4       6       6       4       4       4       4
       4       4       7       4       4       7       4       8       9       9
       9      10      10      10      10      10      11       9      12      13
      13      14      12      13      13      14      12      13      13      14
      12      13      13      14      12      13      13      14      12      13
      13      14      12      13      13      14      12      13      13      14
      12      13      13      14      12      13      13      14      12      13
      13      14      12      13      13      14      12      13      13      14
      12      13      13      14      12      13      13      14      12      13
      13      14      12      13      13      14      12      13      13      14
      12      13      13      14      12      13      13      14      12      13
      13      14      12      13      13      14      12      13      13      14
      12      13      13      14      12      13      13      14      12      13
      13      14      12      13      13      14      12      13      13      14
      12      13      13      14      12      13      13      14      12      13
      13      14      12      13      13      14      12      13      13      14
      12      13      13      14      12      13      13      14      12      13
      13      14      12      13      13      14      12      13      13      14
      12      13      13      14      12      13      13      14      12      13
      13      14      12      13      13      14      12      13      13      14
      12      13      13      14      12      13      13      14      12      13
      13      14      12      13      13      14      12      13      13      14
      12      13      13      14      12      13      13      14      12      13
      13      14      12      13      13      14      12      13      13      14
      12      13      13      14      12      13      13      14      12      13
      13      14      12      13      13      14      12      13      13      14
      12      13      13      14      12      13      13      14      12      13
      13      14      12      13      13      14      12      13      13      14
      12      13      13      14      12      13      13      14      12      13
      13      14      12      13      13      14      12      13      13      14
      12      13      13      14      12      13      13      14      12      13
      13      14      12      13      13      14      12      13      13      14
      12      13      13      14      12      13      13      14      12      13
      13      14      12      13      13      14      12      13      13      14
      12      13      13      14      12      13      13      14      12      13
      13      14      12      13      13      14      12      13      13      14
      12      13      13      14      12      13      13      14      12      13
      13      14      12      13      13      14      12      13      13      14
      12      13      13      14      12      13      13      14      12      13
      13      14      12      13      13      14      12      13      13      14
      12      13      13      14      12      13      13      14      12      13
      13      14      12      13      13      14      12      13      13      14
      12      13      13      14      12      13      13      14      12      13
      13      14      12      13      13      14      12      13      13      14
      12      13      13      14      12      13      13      14      12      13
      13      14      12      13      13      14      12      13      13      14
      12      13      13      14      12      13      13      14      12      13
      13      14      12      13      13      14      12      13      13      14
      12      13      13      14      12      13      13      14      12      13
      13      14      12      13      13      14      12      13      13      14
      12      13      13      14      12      13      13      14      12      13
      13      14      12      13      13      14      12      13      13      14
      12      13      13      14      12      13      13      14      12      13
      13      14      12      13      13      14      12      13      13      14
      12      13      13      14      12      13      13      14      12      13
      13      14      12      13      13      14      12      13      13      14
      12      13      13      14      12      13      13      14      12      13
      13      14      12      13      13      14      12      13      13      14
      12      13      13      14      12      13      13      14      12      13
      13      14      12      13      13      14      12      13      13      14
      12      13      13      14      12      13      13      14      12      13
      13      14      12      13      13      14      12      13      13      14
      12      13      13      14      12      13      13      14      12      13
      13      14      12      13      13      14      12      13      13      14
      12      13      13      14      12      13      13      14      12      13
      13      14      12      13      13      14      12      13      13      14
      12      13      13      14      12      13      13      14      12      13
      13      14      12      13      13      14      12      13      13      14
      12      13      13      14      12      13      13      14      12      13
      13      14      12      13      13      14      12      13      13      14
      12      13      13      14      12      13      13      14      12      13
      13      14      12      13      13      14      12      13      13      14
      12      13      13      14      12      13      13      14      12      13
      13      14      12      13      13      14      12      13      13      14
      12      13      13      14      12      13      13      14      12      13
      13      14      12      13      13      14      12      13      13      14
      12      13      13      14      12      13      13      14      12      13
      13      14      12      13      13      14      12      13      13      14
      12      13      13      14      12      13      13      14      12      13
      13      14      12      13      13      14      12      13      13      14
      12      13      13      14      12      13      13      14      12      13
      13      14      12      13      13      14      12      13      13      14
      12      13      13      14      12      13      13      14      12      13
      13      14      12      13      13      14      12      13      13      14
      12      13      13      14      12      13      13      14      12      13
      13      14      12      13      13      14      12      13      13      14
      12      13      13      14      12      13      13      14      12      13
      13      14      12      13      13      14      12      13      13      14
      12      13      13      14      12      13      13      14      12      13
      13      14      12      13      13      14      12      13      13      14
      12      13      13      14      12      13      13      14      12      13
      13      14      12      13      13      14      12      13      13      14
      12      13      13      14      12      13      13      14      12      13
      13      14      12      13      13      14      12      13      13      14
      12      13      13      14      12      13      13      14      12      13
      13      14      12      13      13      14      12      13      13      14
      12      13      13      14      12      13      13      14      12      13
      13      14      12      13      13      14      12      13      13      14
      12      13      13      14      12      13      13      14      12      13
      13      14      12      13      13      14      12      13      13      14
      12      13      13      14      12      13      13      14      12      13
      13      14      12      13      13      14      12      13      13      14
      12      13      13      14      12      13      13      14      12      13
      13      14      12      13      13      14      12      13      13      14
      12      13      13      14      12      13      13      14      12      13
      13      14      12      13      13      14      12      13      13      14
      12      13      13      14      12      13      13      14      12      13
      13      14      12      13      13      14      12      13      13      14
      12      13      13      14      12      13      13      14      12      13
      13      14      12      13      13      14      12      13      13      14
      12      13      13      14      12      13      13      14      12      13
      13      14      12      13      13      14      12      13      13      14
      12      13      13      14      12      13      13      14      12      13
      13      14      12      13      13      14      12      13      13      14
      12      13      13      14      12      13      13      14      12      13
      13      14      12      13      13      14      12      13      13      14
      12      13      13      14      12      13      13      14      12      13
      13      14      12      13      13      14      12      13      13      14
      12      13      13      14      12      13      13      14      12      13
      13      14      12      13      13      14      12      13      13      14
      12      13      13      14      12      13      13      14      12      13
      13      14      12      13      13      14      12      13      13      14
      12      13      13      14      12      13      13      14      12      13
      13      14      12      13      13      14      12      13      13      14
      12      13      13      14      12      13      13      14      12      13
      13      14      12      13      13      14      12      13      13      14
      12      13      13      14      12      13      13      14      12      13
      13      14      12      13      13      14      12      13      13      14
      12      13      13      14      12      13      13      14      12      13
      13      14      12      13      13      14      12      13      13      14
      12      13      13      14      12      13      13      14      12      13
      13      14      12      13      13      14      12      13      13      14
      12      13      13      14      12      13      13      14      12      13
      13      14      12      13      13      14      12      13      13      14
      12      13      13      14      12      13      13      14      12      13
      13      14      12      13      13      14      12      13      13      14
      12      13      13      14      12      13      13      14      12      13
      13      14      12      13      13      14      12      13      13      14
      12      13      13      14      12      13      13      14      12      13
      13      14      12      13      13      14      12      13      13      14
      12      13      13      14      12      13      13      14      12      13
      13      14      12      13      13      14      12      13      13      14
      12      13      13      14      12      13      13      14      12      13
      13      14      12      13      13      14      12      13      13      14
      12      13      13      14      12      13      13      14      12      13
      13      14      12      13      13      14      12      13      13      14
      12      13      13      14      12      13      13      14      12      13
      13      14      12      13      13      14      12      13      13      14
      12      13      13      14      12      13      13      14      12      13
      13      14      12      13      13      14      12      13      13      14
      12      13      13      14      12      13      13      14      12      13
      13      14      12      13      13      14      12      13      13      14
      12      13      13      14      12      13      13      14      12      13
      13      14      12      13      13      14      12      13      13      14
      12      13      13      14      12      13      13      14      12      13
      13      14      12      13      13      14      12      13      13      14
      12      13      13      14      12      13      13      14      12      13
      13      14      12      13      13      14      12      13      13      14
      12      13      13      14      12      13      13      14      12      13
      13      14      12      13      13      14      12      13      13      14
      12      13      13      14      12      13      13      14      12      13
      13      14      12      13      13      14      12      13      13      14
      12      13      13      14      12      13      13      14      12      13
      13      14      12      13      13      14      12      13      13      14
      12      13      13      14      12      13      13      14      12      13
      13      14      12      13      13      14      12      13      13      14
      12      13      13      14      12      13      13      14      12      13
      13      14      12      13      13      14      12      13      13      14
      12      13      13      14      12      13      13      14      12      13
      13      14      12      13      13      14      12      13      13      14
      12      13      13      14      12      13      13      14      12      13
      13      14      12      13      13      14      12      13      13      14
      12      13      13      14      12      13      13      14      12      13
      13      14      12      13      13      14      12      13      13      14
      12      13      13      14      12      13      13      14      12      13
      13      14      12      13      13      14      12      13      13      14
      12      13      13      14      12      13      13      14      12      13
      13      14      12      13      13      14      12      13      13      14
      12      13      13      14      12      13      13      14      12      13
      13      14      12      13      13      14      12      13      13      14
      12      13      13      14      12      13      13      14      12      13
      13      14      12      13      13      14      12      13      13      14
      12      13      13      14      12      13      13      14      12      13
      13      14      12      13      13      14      12      13      13      14
      12      13      13      14      12      13      13      14      12      13
      13      14      12      13      13      14      12      13      13      14
      12      13      13      14      12      13      13      14      12      13
      13      14      12      13      13      14      12      13      13      14
      12      13      13      14      12      13      13      14      12      13
      13      14      12      13      13      14      12      13      13      14
      12      13      13      14      12      13      13      14      12      13
      13      14      12      13      13      14      12      13      13      14
      12      13      13      14      12      13      13      14      12      13
      13      14      12      13      13      14      12      13      13      14
      12      13      13      14      12      13      13      14      12      13
      13      14      12      13      13      14      12      13      13      14
      12      13      13      14      12      13      13      14      12      13
      13      14      12      13      13      14      12      13      13      14
      12      13      13      14      12      13      13      14      12      13
      13      14      12      13      13      14      12      13      13      14
      12      13      13      14      12      13      13      14      12      13
      13      14      12      13      13      14      12      13      13      14
      12      13      13      14      12      13      13      14      12      13
      13      14      12      13      13      14      12      13      13      14
      12      13      13      14      12      13      13      14      12      13
      13      14      12      13      13      14      12      13      13      14
      12      13      13      14      12      13      13      14      12      13
      13      14      12      13      13      14      12      13      13      14
      12      13      13      14      12      13      13      14      12      13
      13      14      12      13      13      14      12      13      13      14
      12      13      13      14      12      13      13      14      12      13
      13      14      12      13      13      14      12      13      13      14
      12      13      13      14      12      13      13      14      12      13
      13      14      12      13      13      14      12      13      13      14
      12      13      13      14      12      13      13      14      12      13
      13      14      12      13      13      14      12      13      13      14
      12      13      13      14      12      13      13      14      12      13
      13      14      12      13      13      14      12      13      13      14
      12      13      13      14      12      13      13      14      12      13
      13      14      12      13      13      14      12      13      13      14
      12      13      13      14      12      13      13      14      12      13
      13      14      12      13      13      14      12      13      13      14
      12      13      13      14      12      13      13      14      12      13
      13      14      12      13      13      14      12      13      13      14
      12      13      13      14      12      13      13      14      12      13
      13      14      12      13      13      14      12      13      13      14
      12      13      13      14      12      13      13      14      12      13
      13      14      12      13      13      14      12      13      13      14
      12      13      13      14      12      13      13      14      12      13
      13      14      12      13      13      14      12      13      13      14
      12      13      13      14      12      13      13      14      12      13
      13      14      12      13      13      14      12      13      13      14
      12      13      13      14      12      13      13      14      12      13
      13      14      12      13      13      14      12      13      13      14
      12      13      13      14      12      13      13      14      12      13
      13      14      12      13      13      14      12      13      13      14
      12      13      13      14      12      13      13      14      12      13
      13      14      12      13      13      14      12      13      13      14
      12      13      13      14      12      13      13      14      12      13
      13      14      12      13      13      14      12      13      13      14
      12      13      13      14      12      13      13      14      12      13
      13      14      12      13      13      14      12      13      13      14
      12      13      13      14      12      13      13      14      12      13
      13      14      12      13      13      14      12      13      13      14
      12      13      13      14      12      13      13      14      12      13
      13      14      12      13      13      14      12      13      13      14
      12      13      13      14      12      13      13      14      12      13
      13      14      12      13      13      14      12      13      13      14
      12      13      13      14      12      13      13      14      12      13
      13      14      12      13      13      14      12      13      13      14
      12      13      13      14      12      13      13      14      12      13
      13      14      12      13      13      14      12      13      13      14
      12      13      13      14      12      13      13      14      12      13
      13      14      12      13      13      14      12      13      13      14
      12      13      13      14      12      13      13      14      12      13
      13      14      12      13      13      14      12      13      13      14
      12      13      13      14      12      13      13      14      12      13
      13      14      12      13      13      14      12      13      13      14
      12      13      13      14      12      13      13      14      12      13
      13      14      12      13      13      14      12      13      13      14
      12      13      13      14      12      13      13      14      12      13
      13      14      12      13      13      14      12      13      13      14
      12      13      13      14      12      13      13      14      12      13
      13      14      12      13      13      14      12      13      13      14
      12      13      13      14      12      13      13      14      12      13
      13      14      12      13      13      14      12      13      13      14
      12      13      13      14      12      13      13      14      12      13
      13      14      12      13      13      14      12      13      13      14
      12      13      13      14      12      13      13      14      12      13
      13      14      12      13      13      14      12      13      13      14
      12      13      13      14      12      13      13      14      12      13
      13      14      12      13      13      14      12      13      13      14
      12      13      13      14      12      13      13      14      12      13
      13      14      12      13      13      14      12      13      13      14
      12      13      13      14      12      13      13      14      12      13
      13      14      12      13      13      14      12      13      13      14
      12      13      13      14      12      13      13      14      12      13
      13      14      12      13      13      14      12      13      13      14
      12      13      13      14      12      13      13      14      12      13
      13      14      12      13      13      14      12      13      13      14
      12      13      13      14      12      13      13      14      12      13
      13      14      12      13      13      14      12      13      13      14
      12      13      13      14      12      13      13      14      12      13
      13      14      12      13      13      14      12      13      13      14
      12      13      13      14      12      13      13      14      12      13
      13      14      12      13      13      14      12      13      13      14
      12      13      13      14      12      13      13      14      12      13
      13      14      12      13      13      14      12      13      13      14
      12      13      13      14      12      13      13      14      12      13
      13      14      12      13      13      14      12      13      13      14
      12      13      13      14      12      13      13      14      12      13
      13      14      12      13      13      14      12      13      13      14
      12      13      13      14      12      13      13      14      12      13
      13      14      12      13      13      14      12      13      13      14
      12      13      13      14      12      13      13      14      12      13
      13      14      12      13      13      14      12      13      13      14
      12      13      13      14      12      13      13      14      12      13
      13      14      12      13      13      14      12      13      13      14
      12      13      13      14      12      13      13      14      12      13
      13      14      12      13      13      14      12      13      13      14
      12      13      13      14      12      13      13      14      12      13
      13      14      12      13      13      14      12      13      13      14
      12      13      13      14      12      13      13      14      12      13
      13      14      12      13      13      14      12      13      13      14
      12      13      13      14      12      13      13      14      12      13
      13      14      12      13      13      14      12      13      13      14
      12      13      13      14      12      13      13      14      12      13
      13      14      12      13      13      14      12      13      13      14
      12      13      13      14      12      13      13      14      12      13
      13      14      12      13      13      14      12      13      13      14
      12      13      13      14      12      13      13      14      12      13
      13      14      12      13      13      14      12      13      13      14
      12      13      13      14      12      13      13      14      12      13
      13      14      12      13      13      14      12      13      13      14
      12      13      13      14      12      13      13      14      12      13
      13      14      12      13      13      14      12      13      13      14
      12      13      13      14      12      13      13      14      12      13
      13      14      12      13      13      14      12      13      13      14
      12      13      13      14      12      13      13      14      12      13
      13      14      12      13      13      14      12      13      13      14
      12      13      13      14      12      13      13      14      12      13
      13      14      12      13      13      14      12      13      13      14
      12      13      13      14      12      13      13      14      12      13
      13      14      12      13      13      14      12      13      13      14
      12      13      13      14      12      13      13      14      12      13
      13      14      12      13      13      14      12      13      13      14
      12      13      13      14      12      13      13      14      12      13
      13      14      12      13      13      14      12      13      13      14
      12      13      13      14      12      13      13      14      12      13
      13      14      12      13      13      14      12      13      13      14
      12      13      13      14      12      13      13      14      12      13
      13      14      12      13      13      14      12      13      13      14
      12      13      13      14      12      13      13      14      12      13
      13      14      12      13      13      14      12      13      13      14
      12      13      13      14      12      13      13      14      12      13
      13      14      12      13      13      14      12      13      13      14
      12      13      13      14      12      13      13      14      12      13
      13      14      12      13      13      14      12      13      13      14
      12      13      13      14      12      13      13      14      12      13
      13      14      12      13      13      14      12      13      13      14
      12      13      13      14      12      13      13      14      12      13
      13      14      12      13      13      14      12      13      13      14
      12      13      13      14      12      13      13      14      12      13
      13      14      12      13      13      14      12      13      13      14
      12      13      13      14      12      13      13      14      12      13
      13      14      12      13      13      14      12      13      13      14
      12      13      13      14      12      13      13      14      12      13
      13      14      12      13      13      14      12      13      13      14
      12      13      13      14      12      13      13      14      12      13
      13      14      12      13      13      14      12      13      13      14
      12      13      13      14      12      13      13      14      12      13
      13      14      12      13      13      14      12      13      13      14
      12      13      13      14      12      13      13      14      12      13
      13      14      12      13      13      14      12      13      13      14
      12      13      13      14      12      13      13      14      12      13
      13      14      12      13      13      14      12      13      13      14
      12      13      13      14      12      13      13      14      12      13
      13      14      12      13      13      14      12      13      13      14
      12      13      13      14      12      13      13      14      12      13
      13      14      12      13      13      14      12      13      13      14
      12      13      13      14      12      13      13      14      12      13
      13      14      12      13      13      14      12      13      13      14
      12      13      13      14      12      13      13      14      12      13
      13      14      12      13      13      14      12      13      13      14
      12      13      13      14      12      13      13      14      12      13
      13      14      12      13      13      14      12      13      13      14
      12      13      13      14      12      13      13      14      12      13
      13      14      12      13      13      14      12      13      13      14
      12      13      13      14      12      13      13      14      12      13
      13      14      12      13      13      14      12      13      13      14
      12      13      13      14      12      13      13      14      12      13
      13      14      12      13      13      14      12      13      13      14
      12      13      13      14      12      13      13      14      12      13
      13      14      12      13      13      14      12      13      13      14
      12      13      13      14      12      13      13      14      12      13
      13      14      12      13      13      14      12      13      13      14
      12      13      13      14      12      13      13      14      12      13
      13      14      12      13      13      14      12      13      13      14
      12      13      13      14      12      13      13      14      12      13
      13      14      12      13      13      14      12      13      13      14
      12      13      13      14      12      13      13      14      12      13
      13      14      12      13      13      14      12      13      13      14
      12      13      13      14      12      13      13      14      12      13
      13      14      12      13      13      14      12      13      13      14
      12      13      13      14      12      13      13      14      12      13
      13      14      12      13      13      14      12      13      13      14
      12      13      13      14      12      13      13      14      12      13
      13      14      12      13      13      14      12      13      13      14
      12      13      13      14      12      13      13      14      12      13
      13      14      12      13      13      14      12      13      13      14
      12      13      13      14      12      13      13      14      12      13
      13      14      12      13      13      14      12      13      13      14
      12      13      13      14      12      13      13      14      12      13
      13      14      12      13      13      14      12      13      13      14
      12      13      13      14      12      13      13      14      12      13
      13      14      12      13      13      14      12      13      13      14
      12      13      13      14      12      13      13      14      12      13
      13      14      12      13      13      14      12      13      13      14
      12      13      13      14      12      13      13      14      12      13
      13      14      12      13      13      14      12      13      13      14
      12      13      13      14      12      13      13      14      12      13
      13      14      12      13      13      14      12      13      13      14
      12      13      13      14      12      13      13      14      12      13
      13      14      12      13      13      14      12      13      13      14
      12      13      13      14      12      13      13      14      12      13
      13      14      12      13      13      14      12      13      13      14
      12      13      13      14      12      13      13      14      12      13
      13      14      12      13      13      14      12      13      13      14
      12      13      13      14      12      13      13      14      12      13
      13      14      12      13      13      14      12      13      13      14
      12      13      13      14      12      13      13      14      12      13
      13      14      12      13      13      14      12      13      13      14
      12      13      13      14      12      13      13      14      12      13
      13      14      12      13      13      14      12      13      13      14
      12      13      13      14      12      13      13      14      12      13
      13      14      12      13      13      14      12      13      13      14
      12      13      13      14      12      13      13      14      12      13
      13      14      12      13      13      14      12      13      13      14
      12      13      13      14      12      13      13      14      12      13
      13      14      12      13      13      14      12      13      13      14
      12      13      13      14      12      13      13      14      12      13
      13      14      12      13      13      14      12      13      13      14
      12      13      13      14      12      13      13      14      12      13
      13      14      12      13      13      14      12      13      13      14
      12      13      13      14      12      13      13      14      12      13
      13      14      12      13      13      14      12      13      13      14
      12      13      13      14      12      13      13      14      12      13
      13      14      12      13      13      14      12      13      13      14
      12      13      13      14      12      13      13      14      12      13
      13      14      12      13      13      14      12      13      13      14
      12      13      13      14      12      13      13      14      12      13
      13      14      12      13      13      14      12      13      13      14
      12      13      13      14      12      13      13      14      12      13
      13      14      12      13      13      14      12      13      13      14
      12      13      13      14      12      13      13      14      12      13
      13      14      12      13      13      14      12      13      13      14
      12      13      13      14      12      13      13      14      12      13
      13      14      12      13      13      14      12      13      13      14
      12      13      13      14      12      13      13      14      12      13
      13      14      12      13      13      14      12      13      13      14
      12      13      13      14      12      13      13      14      12      13
      13      14      12      13      13      14      12      13      13      14
      12      13      13      14      12      13      13      14      12      13
      13      14      12      13      13      14      12      13      13      14
      12      13      13      14      12      13      13      14      12      13
      13      14      12      13      13      14      12      13      13      14
      12      13      13      14      12      13      13      14      12      13
      13      14      12      13      13      14      12      13      13      14
      12      13      13      14      12      13      13      14      12      13
      13      14      12      13      13      14      12      13      13      14
      12      13      13      14      12      13      13      14      12      13
      13      14      12      13      13      14      12      13      13      14
      12      13      13      14      12      13      13      14      12      13
      13      14      12      13      13      14      12      13      13      14
      12      13      13      14      12      13      13      14      12      13
      13      14      12      13      13      14      12      13      13      14
      12      13      13      14      12      13      13      14      12      13
      13      14      12      13      13      14      12      13      13      14
      12      13      13      14      12      13      13      14      12      13
      13      14      12      13      13      14      12      13      13      14
      12      13      13      14      12      13      13      14      12      13
      13      14      12      13      13      14      12      13      13      14
      12      13      13      14      12      13      13      14      12      13
      13      14      12      13      13      14      12      13      13      14
      12      13      13      14      12      13      13      14      12      13
      13      14      12      13      13      14      12      13      13      14
      12      13      13      14      12      13      13      14      12      13
      13      14      12      13      13      14      12      13      13      14
      12      13      13      14      12      13      13      14      12      13
      13      14      12      13      13      14      12      13      13      14
      12      13      13      14      12      13      13      14      12      13
      13      14      12      13      13      14      12      13      13      14
      12      13      13      14      12      13      13      14      12      13
      13      14      12      13      13      14      12      13      13      14
      12      13      13      14      12      13      13      14      12      13
      13      14      12      13      13      14      12      13      13      14
      12      13      13      14      12      13      13      14      12      13
      13      14      12      13      13      14      12      13      13      14
      12      13      13      14      12      13      13      14      12      13
      13      14      12      13      13      14      12      13      13      14
      12      13      13      14      12      13      13      14      12      13
      13      14      12      13      13      14      12      13      13      14
      12      13      13      14      12      13      13      14      12      13
      13      14      12      13      13      14      12      13      13      14
      12      13      13      14      12      13      13      14      12      13
      13      14      12      13      13      14      12      13      13      14
      12      13      13      14      12      13      13      14      12      13
      13      14      12      13      13      14      12      13      13      14
      12      13      13      14      12      13      13      14      12      13
      13      14      12      13      13      14      12      13      13      14
      12      13      13      14      12      13      13      14      12      13
      13      14      12      13      13      14      12      13      13      14
      12      13      13      14      12      13      13      14      12      13
      13      14      12      13      13      14      12      13      13      14
      12      13      13      14      12      13      13      14      12      13
      13      14      12      13      13      14      12      13      13      14
      12      13      13      14      12      13      13      14      12      13
      13      14      12      13      13      14      12      13      13      14
      12      13      13      14      12      13      13      14      12      13
      13      14      12      13      13      14      12      13      13      14
      12      13      13      14      12      13      13      14      12      13
      13      14      12      13      13      14      12      13      13      14
      12      13      13      14      12      13      13      14      12      13
      13      14      12      13      13      14      12      13      13      14
      12      13      13      14      12      13      13      14      12      13
      13      14      12      13      13      14      12      13      13      14
      12      13      13      14      12      13      13      14      12      13
      13      14      12      13      13      14      12      13      13      14
      12      13      13      14      12      13      13      14      12      13
      13      14      12      13      13      14      12      13      13      14
      12      13      13      14      12      13      13      14      12      13
      13      14      12      13      13      14      12      13      13      14
      12      13      13      14      12      13      13      14      12      13
      13      14      12      13      13      14      12      13      13      14
      12      13      13      14      12      13      13      14      12      13
      13      14      12      13      13      14      12      13      13      14
      12      13      13      14      12      13      13      14      12      13
      13      14      12      13      13      14      12      13      13      14
      12      13      13      14      12      13      13      14      12      13
      13      14      12      13      13      14      12      13      13      14
      12      13      13      14      12      13      13      14      12      13
      13      14      12      13      13      14      12      13      13      14
      12      13      13      14      12      13      13      14      12      13
      13      14      12      13      13      14      12      13      13      14
      12      13      13      14      12      13      13      14      12      13
      13      14      12      13      13      14      12      13      13      14
      12      13      13      14      12      13      13      14      12      13
      13      14      12      13      13      14      12      13      13      14
      12      13      13      14      12      13      13      14      12      13
      13      14      12      13      13      14      12      13      13      14
      12      13      13      14      12      13      13      14      12      13
      13      14      12      13      13      14      12      13      13      14
      12      13      13      14      12      13      13      14      12      13
      13      14      12      13      13      14      12      13      13      14
      12      13      13      14      12      13      13      14      12      13
      13      14      12      13      13      14      12      13      13      14
      12      13      13      14      12      13      13      14      12      13
      13      14      12      13      13      14      12      13      13      14
      12      13      13      14      12      13      13      14      12      13
      13      14      12      13      13      14      12      13      13      14
      12      13      13      14      12      13      13      14      12      13
      13      14      12      13      13      14      12      13      13      14
      12      13      13      14      12      13      13      14      12      13
      13      14      12      13      13      14      12      13      13      14
      12      13      13      14      12      13      13      14      12      13
      13      14      12      13      13      14      12      13      13      14
      12      13      13      14      12      13      13      14      12      13
      13      14      12      13      13      14      12      13      13      14
      12      13      13      14      12      13      13      14      12      13
      13      14      12      13      13      14      12      13      13      14
      12      13      13      14      12      13      13      14      12      13
      13      14      12      13      13      14      12      13      13      14
      12      13      13      14      12      13      13      14      12      13
      13      14      12      13      13      14      12      13      13      14
      12      13      13      14      12      13      13      14      12      13
      13      14      12      13      13      14      12      13      13      14
      12      13      13      14      12      13      13      14      12      13
      13      14      12      13      13      14      12      13      13      14
      12      13      13      14      12      13      13      14      12      13
      13      14      12      13      13      14      12      13      13      14
      12      13      13      14      12      13      13      14      12      13
      13      14      12      13      13      14      12      13      13      14
      12      13      13      14      12      13      13      14      12      13
      13      14      12      13      13      14      12      13      13      14
      12      13      13      14      12      13      13      14      12      13
      13      14      12      13      13      14      12      13      13      14
      12      13      13      14      12      13      13      14      12      13
      13      14      12      13      13      14      12      13      13      14
      12      13      13      14      12      13      13      14      12      13
      13      14      12      13      13      14      12      13      13      14
      12      13      13      14      12      13      13      14      12      13
      13      14      12      13      13      14      12      13      13      14
      12      13      13      14      12      13      13      14      12      13
      13      14      12      13      13      14      12      13      13      14
      12      13      13      14      12      13      13      14      12      13
      13      14      12      13      13      14      12      13      13      14
      12      13      13      14      12      13      13      14      12      13
      13      14      12      13      13      14      12      13      13      14
      12      13      13      14      12      13      13      14      12      13
      13      14      12      13      13      14      12      13      13      14
      12      13      13      14      12      13      13      14      12      13
      13      14      12      13      13      14      12      13      13      14
      12      13      13      14      12      13      13      14      12      13
      13      14      12      13      13      14      12      13      13      14
      12      13      13      14      12      13      13      14      12      13
      13      14      12      13      13      14      12      13      13      14
      12      13      13      14      12      13      13      14      12      13
      13      14      12      13      13      14      12      13      13      14
      12      13      13      14      12      13      13      14      12      13
      13      14      12      13      13      14      12      13      13      14
      12      13      13      14      12      13      13      14      12      13
      13      14      12      13      13      14      12      13      13      14
      12      13      13      14      12      13      13      14      12      13
      13      14      12      13      13      14      12      13      13      14
      12      13      13      14      12      13      13      14      12      13
      13      14      12      13      13      14      12      13      13      14
      12      13      13      14      12      13      13      14      12      13
      13      14      12      13      13      14      12      13      13      14
      12      13      13      14      12      13      13      14      12      13
      13      14      12      13      13      14      12      13      13      14
      12      13      13      14      12      13      13      14      12      13
      13      14      12      13      13      14      12      13      13      14
      12      13      13      14      12      13      13      14      12      13
      13      14      12      13      13      14      12      13      13      14
      12      13      13      14      12      13      13      14      12      13
      13      14      12      13      13      14      12      13      13      14
      12      13      13      14      12      13      13      14      12      13
      13      14      12      13      13      14      12      13      13      14
      12      13      13      14      12      13      13      14      12      13
      13      14      12      13      13      14      12      13      13      14
      12      13      13      14      12      13      13      14      12      13
      13      14      12      13      13      14      12      13      13      14
      12      13      13      14      12      13      13      14      12      13
      13      14      12      13      13      14      12      13      13      14
      12      13      13      14      12      13      13      14      12      13
      13      14      12      13      13      14      12      13      13      14
      12      13      13      14      12      13      13      14      12      13
      13      14      12      13      13      14      12      13      13      14
      12      13      13      14      12      13      13      14      12      13
      13      14      12      13      13      14      12      13      13      14
      12      13      13      14      12      13      13      14      12      13
      13      14      12      13      13      14      12      13      13      14
      12      13      13      14      12      13      13      14      12      13
      13      14      12      13      13      14      12      13      13      14
      12      13      13      14      12      13      13      14      12      13
      13      14      12      13      13      14      12      13      13      14
      12      13      13      14      12      13      13      14      12      13
      13      14      12      13      13      14      12      13      13      14
      12      13      13      14      12      13      13      14      12      13
      13      14      12      13      13      14      12      13      13      14
      12      13      13      14      12      13      13      14      12      13
      13      14      12      13      13      14      12      13      13      14
      12      13      13      14      12      13      13      14      12      13
      13      14      12      13      13      14      12      13      13      14
      12      13      13      14      12      13      13      14      12      13
      13      14      12      13      13      14      12      13      13      14
      12      13      13      14      12      13      13      14      12      13
      13      14      12      13      13      14      12      13      13      14
      12      13      13      14      12      13      13      14      12      13
      13      14      12      13      13      14      12      13      13      14
      12      13      13      14      12      13      13      14      12      13
      13      14      12      13      13      14      12      13      13      14
      12      13      13      14      12      13      13      14      12      13
      13      14      12      13      13      14      12      13      13      14
      12      13      13      14      12      13      13      14      12      13
      13      14      12      13      13      14      12      13      13      14
      12      13      13      14      12      13      13      14      12      13
      13      14      12      13      13      14      12      13      13      14
      12      13      13      14      12      13      13      14      12      13
      13      14      12      13      13      14      12      13      13      14
      12      13      13      14      12      13      13      14      12      13
      13      14      12      13      13      14      12      13      13      14
      12      13      13      14      12      13      13      14      12      13
      13      14      12      13      13      14      12      13      13      14
      12      13      13      14      12      13      13      14      12      13
      13      14      12      13      13      14      12      13      13      14
      12      13      13      14      12      13      13      14      12      13
      13      14      12      13      13      14      12      13      13      14
      12      13      13      14      12      13      13      14      12      13
      13      14      12      13      13      14      12      13      13      14
      12      13      13      14      12      13      13      14      12      13
      13      14      12      13      13      14      12      13      13      14
      12      13      13      14      12      13      13      14      12      13
      13      14      12      13      13      14      12      13      13      14
      12      13      13      14      12      13      13      14      12      13
      13      14      12      13      13      14      12      13      13      14
      12      13      13      14      12      13      13      14      12      13
      13      14      12      13      13      14      12      13      13      14
      12      13      13      14      12      13      13      14      12      13
      13      14      12      13      13      14      12      13      13      14
      12      13      13      14      12      13      13      14      12      13
      13      14      12      13      13      14      12      13      13      14
      12      13      13      14      12      13      13      14      12      13
      13      14      12      13      13      14      12      13      13      14
      12      13      13      14      12      13      13      14      12      13
      13      14      12      13      13      14      12      13      13      14
      12      13      13      14      12      13      13      14      12      13
      13      14      12      13      13      14      12      13      13      14
      12      13      13      14      12      13      13      14      12      13
      13      14      12      13      13      14      12      13      13      14
      12      13      13      14      12      13      13      14      12      13
      13      14      12      13      13      14      12      13      13      14
      12      13      13      14      12      13      13      14      12      13
      13      14      12      13      13      14      12      13      13      14
      12      13      13      14      12      13      13      14      12      13
      13      14      12      13      13      14      12      13      13      14
      12      13      13      14      12      13      13      14      12      13
      13      14      12      13      13      14      12      13      13      14
      12      13      13      14      12      13      13      14      12      13
      13      14      12      13      13      14      12      13      13      14
      12      13      13      14      12      13      13      14      12      13
      13      14      12      13      13      14      12      13      13      14
      12      13      13      14      12      13      13      14      12      13
      13      14      12      13      13      14      12      13      13      14
      12      13      13      14      12      13      13      14      12      13
      13      14      12      13      13      14      12      13      13      14
      12      13      13      14      12      13      13      14      12      13
      13      14      12      13      13      14      12      13      13      14
      12      13      13      14      12      13      13      14      12      13
      13      14      12      13      13      14      12      13      13      14
      12      13      13      14      12      13      13      14      12      13
      13      14      12      13      13      14      12      13      13      14
      12      13      13      14      12      13      13      14      12      13
      13      14      12      13      13      14      12      13      13      14
      12      13      13      14      12      13      13      14      12      13
      13      14      12      13      13      14      12      13      13      14
      12      13      13      14      12      13      13      14      12      13
      13      14      12      13      13      14      12      13      13      14
      12      13      13      14      12      13      13      14      12      13
      13      14      12      13      13      14      12      13      13      14
      12      13      13      14      12      13      13      14      12      13
      13      14      12      13      13      14      12      13      13      14
      12      13      13      14      12      13      13      14      12      13
      13      14      12      13      13      14      12      13      13      14
      12      13      13      14      12      13      13      14      12      13
      13      14      12      13      13      14      12      13      13      14
      12      13      13      14      12      13      13      14      12      13
      13      14      12      13      13      14      12      13      13      14
      12      13      13      14      12      13      13      14      12      13
      13      14      12      13      13      14      12      13      13      14
      12      13      13      14      12      13      13      14      12      13
      13      14      12      13      13      14      12      13      13      14
      12      13      13      14      12      13      13      14      12      13
      13      14      12      13      13      14      12      13      13      14
      12      13      13      14      12      13      13      14      12      13
      13      14      12      13      13      14      12      13      13      14
      12      13      13      14      12      13      13      14      12      13
      13      14      12      13      13      14      12      13      13      14
      12      13      13      14      12      13      13      14      12      13
      13      14      12      13      13      14      12      13      13      14
      12      13      13      14      12      13      13      14      12      13
      13      14      12      13      13      14      12      13      13      14
      12      13      13      14      12      13      13      14      12      13
      13      14      12      13      13      14      12      13      13      14
      12      13      13      14      12      13      13      14      12      13
      13      14      12      13      13      14      12      13      13      14
      12      13      13      14      12      13      13      14      12      13
      13      14      12      13      13      14      12      13      13      14
      12      13      13      14      12      13      13      14      12      13
      13      14      12      13      13      14      12      13      13      14
      12      13      13      14      12      13      13      14      12      13
      13      14      12      13      13      14      12      13      13      14
      12      13      13      14      12      13      13      14      12      13
      13      14      12      13      13      14      12      13      13      14
      12      13      13      14      12      13      13      14      12      13
      13      14      12      13      13      14      12      13      13      14
      12      13      13      14      12      13      13      14      12      13
      13      14      12      13      13      14      12      13      13      14
      12      13      13      14      12      13      13      14      12      13
      13      14      12      13      13      14      12      13      13      14
      12      13      13      14      12      13      13      14      12      13
      13      14      12      13      13      14      12      13      13      14
      12      13      13      14      12      13      13      14      12      13
      13      14      12      13      13      14      12      13      13      14
      12      13      13      14      12      13      13      14      12      13
      13      14      12      13      13      14      12      13      13      14
      12      13      13      14      12      13      13      14      12      13
      13      14      12      13      13      14      12      13      13      14
      12      13      13      14      12      13      13      14      12      13
      13      14      12      13      13      14      12      13      13      14
      12      13      13      14      12      13      13      14      12      13
      13      14      12      13      13      14      12      13      13      14
      12      13      13      14      12      13      13      14      12      13
      13      14      12      13      13      14      12      13      13      14
      12      13      13      14      12      13      13      14      12      13
      13      14      12      13      13      14      12      13      13      14
      12      13      13      14      12      13      13      14      12      13
      13      14      12      13      13      14      12      13      13      14
      12      13      13      14      12      13      13      14      12      13
      13      14      12      13      13      14      12      13      13      14
      12      13      13      14      12      13      13      14      12      13
      13      14      12      13      13      14      12      13      13      14
      12      13      13      14      12      13      13      14      12      13
      13      14      12      13      13      14      12      13      13      14
      12      13      13      14      12      13      13      14      12      13
      13      14      12      13      13      14      12      13      13      14
      12      13      13      14      12      13      13      14      12      13
      13      14      12      13      13      14      12      13      13      14
      12      13      13      14      12      13      13      14      12      13
      13      14      12      13      13      14      12      13      13      14
      12      13      13      14      12      13      13      14      12      13
      13      14      12      13      13      14      12      13      13      14
      12      13      13      14      12      13      13      14      12      13
      13      14      12      13      13      14      12      13      13      14
      12      13      13      14      12      13      13      14      12      13
      13      14      12      13      13      14      12      13      13      14
      12      13      13      14      12      13      13      14      12      13
      13      14      12      13      13      14      12      13      13      14
      12      13      13      14      12      13      13      14      12      13
      13      14      12      13      13      14      12      13      13      14
      12      13      13      14      12      13      13      14      12      13
      13      14      12      13      13      14      12      13      13      14
      12      13      13      14      12      13      13      14      12      13
      13      14      12      13      13      14      12      13      13      14
      12      13      13      14      12      13      13      14      12      13
      13      14      12      13      13      14      12      13      13      14
      12      13      13      14      12      13      13      14      12      13
      13      14      12      13      13      14      12      13      13      14
      12      13      13      14      12      13      13      14      12      13
      13      14      12      13      13      14      12      13      13      14
      12      13      13      14      12      13      13      14      12      13
      13      14      12      13      13      14      12      13      13      14
      12      13      13      14      12      13      13      14      12      13
      13      14      12      13      13      14      12      13      13      14
      12      13      13      14      12      13      13      14      12      13
      13      14      12      13      13      14      12      13      13      14
      12      13      13      14      12      13      13      14      12      13
      13      14      12      13      13      14      12      13      13      14
      12      13      13      14      12      13      13      14      12      13
      13      14      12      13      13      14      12      13      13      14
      12      13      13      14      12      13      13      14      12      13
      13      14      12      13      13      14      12      13      13      14
      12      13      13      14      12      13      13      14      12      13
      13      14      12      13      13      14      12      13      13      14
      12      13      13      14      12      13      13      14      12      13
      13      14      12      13      13      14      12      13      13      14
      12      13      13      14      12      13      13      14      12      13
      13      14      12      13      13      14      12      13      13      14
      12      13      13      14      12      13      13      14      12      13
      13      14      12      13      13      14      12      13      13      14
      12      13      13      14      12      13      13      14      12      13
      13      14      12      13      13      14      12      13      13      14
      12      13      13      14      12      13      13      14      12      13
      13      14      12      13      13      14      12      13      13      14
      12      13      13      14      12      13      13      14      12      13
      13      14      12      13      13      14      12      13      13      14
      12      13      13      14      12      13      13      14      12      13
      13      14      12      13      13      14      12      13      13      14
      12      13      13      14      12      13      13      14      12      13
      13      14      12      13      13      14      12      13      13      14
      12      13      13      14      12      13      13      14      12      13
      13      14      12      13      13      14      12      13      13      14
      12      13      13      14      12      13      13      14      12      13
      13      14      12      13      13      14      12      13      13      14
      12      13      13      14      12      13      13      14      12      13
      13      14      12      13      13      14      12      13      13      14
      12      13      13      14      12      13      13      14      12      13
      13      14      12      13      13      14      12      13      13      14
      12      13      13      14      12      13      13      14      12      13
      13      14      12      13      13      14      12      13      13      14
      12      13      13      14      12      13      13      14      12      13
      13      14      12      13      13      14      12      13      13      14
      12      13      13      14      12      13      13      14      12      13
      13      14      12      13      13      14      12      13      13      14
      12      13      13      14      12      13      13      14      12      13
      13      14      12      13      13      14      12      13      13      14
      12      13      13      14      12      13      13      14      12      13
      13      14      12      13      13      14      12      13      13      14
      12      13      13      14      12      13      13      14      12      13
      13      14      12      13      13      14      12      13      13      14
      12      13      13      14      12      13      13      14      12      13
      13      14      12      13      13      14      12      13      13      14
      12      13      13      14      12      13      13      14      12      13
      13      14      12      13      13      14      12      13      13      14
      12      13      13      14      12      13      13      14      12      13
      13      14      12      13      13      14      12      13      13      14
      12      13      13      14      12      13      13      14      12      13
      13      14      12      13      13      14      12      13      13      14
      12      13      13      14      12      13      13      14      12      13
      13      14      12      13      13      14      12      13      13      14
      12      13      13      14      12      13      13      14      12      13
      13      14      12      13      13      14      12      13      13      14
      12      13      13      14      12      13      13      14      12      13
      13      14      12      13      13      14      12      13      13      14
      12      13      13      14      12      13      13      14      12      13
      13      14      12      13      13      14      12      13      13      14
      12      13      13      14      12      13      13      14      12      13
      13      14      12      13      13      14      12      13      13      14
      12      13      13      14      12      13      13      14      12      13
      13      14      12      13      13      14      12      13      13      14
      12      13      13      14      12      13      13      14      12      13
      13      14      12      13      13      14      12      13      13      14
      12      13      13      14      12      13      13      14      12      13
      13      14      12      13      13      14      12      13      13      14
      12      13      13      14      12      13      13      14      12      13
      13      14
%FLAG NUMBER_EXCLUDED_ATOMS                                                     
%FORMAT(10I8)                                                                   
       1       1       1       1       1       1       1       1       1       1
       7      10       9      10       9      10      11       9       7       7
       5       5       8       6       6       4       3       2       1       1
       1       1       1       1       1       1       1       1       3       2
       1       1       3       2       1       1       3       2       1       1
       3       2       1       1       3       2       1       1       3       2
       1       1       3       2       1       1       3       2       1       1
       3       2       1       1       3       2       1       1       3       2
       1       1       3       2       1       1       3       2       1       1
       3       2       1       1       3       2       1       1       3       2
       1       1       3       2       1       1       3       2       1       1
       3       2       1       1       3       2       1       1       3       2
       1       1       3       2       1       1       3       2       1       1
       3       2       1       1       3       2       1       1       3       2
       1       1       3       2       1       1       3       2       1       1
       3       2       1       1       3       2       1       1       3       2
       1       1       3       2       1       1       3       2       1       1
       3       2       1       1       3       2       1       1       3       2
       1       1       3       2       1       1       3       2       1       1
       3       2       1       1       3       2       1       1       3       2
       1       1       3       2       1       1       3       2       1       1
       3       2       1       1       3       2       1       1       3       2
       1       1       3       2       1       1       3       2       1       1
       3       2       1       1       3       2       1       1       3       2
       1       1       3       2       1       1       3       2       1       1
       3       2       1       1       3       2       1       1       3       2
       1       1       3       2       1       1       3       2       1       1
       3       2       1       1       3       2       1       1       3       2
       1       1       3       2       1       1       3       2       1       1
       3       2       1       1       3       2       1       1       3       2
       1       1       3       2       1       1       3       2       1       1
       3       2       1       1       3       2       1       1       3       2
       1       1       3       2       1       1       3       2       1       1
       3       2       1       1       3       2       1       1       3       2
       1       1       3       2       1       1       3       2       1       1
       3       2       1       1       3       2       1       1       3       2
       1       1       3       2       1       1       3       2       1       1
       3       2       1       1       3       2       1       1       3       2
       1       1       3       2       1       1       3       2       1       1
       3       2       1       1       3       2       1       1       3       2
       1       1       3       2       1       1       3       2       1       1
       3       2       1       1       3       2       1       1       3       2
       1       1       3       2       1       1       3       2       1       1
       3       2       1       1       3       2       1       1       3       2
       1       1       3       2       1       1       3       2       1       1
       3       2       1       1       3       2       1       1       3       2
       1       1       3       2       1       1       3       2       1       1
       3       2       1       1       3       2       1       1       3       2
       1       1       3       2       1       1       3       2       1       1
       3       2       1       1       3       2       1       1       3       2
       1       1       3       2       1       1       3       2       1       1
       3       2       1       1       3       2       1       1       3       2
       1       1       3       2       1       1       3       2       1       1
       3       2       1       1       3       2       1       1       3       2
       1       1       3       2       1       1       3       2       1       1
       3       2       1       1       3       2       1       1       3       2
       1       1       3       2       1       1       3       2       1       1
       3       2       1       1       3       2       1       1       3       2
       1       1       3       2       1       1       3       2       1       1
       3       2       1       1       3       2       1       1       3       2
       1       1       3       2       1       1       3       2       1       1
       3       2       1       1       3       2       1       1       3       2
       1       1       3       2       1       1       3       2       1       1
       3       2       1       1       3       2       1       1       3       2
       1       1       3       2       1       1       3       2       1       1
       3       2       1       1       3       2       1       1       3       2
       1       1       3       2       1       1       3       2       1       1
       3       2       1       1       3       2       1       1       3       2
       1       1       3       2       1       1       3       2       1       1
       3       2       1       1       3       2       1       1       3       2
       1       1       3       2       1       1       3       2       1       1
       3       2       1       1       3       2       1       1       3       2
       1       1       3       2       1       1       3       2       1       1
       3       2       1       1       3       2       1       1       3       2
       1       1       3       2       1       1       3       2       1       1
       3       2       1       1       3       2       1       1       3       2
       1       1       3       2       1       1       3       2       1       1
       3       2       1       1       3       2       1       1       3       2
       1       1       3       2       1       1       3       2       1       1
       3       2       1       1       3       2       1       1       3       2
       1       1       3       2       1       1       3       2       1       1
       3       2       1       1       3       2       1       1       3       2
       1       1       3       2       1       1       3       2       1       1
       3       2       1       1       3       2       1       1       3       2
       1       1       3       2       1       1       3       2       1       1
       3       2       1       1       3       2       1       1       3       2
       1       1       3       2       1       1       3       2       1       1
       3       2       1       1       3       2       1       1       3       2
       1       1       3       2       1       1       3       2       1       1
       3       2       1       1       3       2       1       1       3       2
       1       1       3       2       1       1       3       2       1       1
       3       2       1       1       3       2       1       1       3       2
       1       1       3       2       1       1       3       2       1       1
       3       2       1       1       3       2       1       1       3       2
       1       1       3       2       1       1       3       2       1       1
       3       2       1       1       3       2       1       1       3       2
       1       1       3       2       1       1       3       2       1       1
       3       2       1       1       3       2       1       1       3       2
       1       1       3       2       1       1       3       2       1       1
       3       2       1       1       3       2       1       1       3       2
       1       1       3       2       1       1       3       2       1       1
       3       2       1       1       3       2       1       1       3       2
       1       1       3       2       1       1       3       2       1       1
       3       2       1       1       3       2       1       1       3       2
       1       1       3       2       1       1       3       2       1       1
       3       2       1       1       3       2       1       1       3       2
       1       1       3       2       1       1       3       2       1       1
       3       2       1       1       3       2       1       1       3       2
       1       1       3       2       1       1       3       2       1       1
       3       2       1       1       3       2       1       1       3       2
       1       1       3       2       1       1       3       2       1       1
       3       2       1       1       3       2       1       1       3       2
       1       1       3       2       1       1       3       2       1       1
       3       2       1       1       3       2       1       1       3       2
       1       1       3       2       1       1       3       2       1       1
       3       2       1       1       3       2       1       1       3       2
       1       1       3       2       1       1       3       2       1       1
       3       2       1       1       3       2       1       1       3       2
       1       1       3       2       1       1       3       2       1       1
       3       2       1       1       3       2       1       1       3       2
       1       1       3       2       1       1       3       2       1       1
       3       2       1       1       3       2       1       1       3       2
       1       1       3       2       1       1       3       2       1       1
       3       2       1       1       3       2       1       1       3       2
       1       1       3       2       1       1       3       2       1       1
       3       2       1       1       3       2       1       1       3       2
       1       1       3       2       1       1       3       2       1       1
       3       2       1       1       3       2       1       1       3       2
       1       1       3       2       1       1       3       2       1       1
       3       2       1       1       3       2       1       1       3       2
       1       1       3       2       1       1       3       2       1       1
       3       2       1       1       3       2       1       1       3       2
       1       1       3       2       1       1       3       2       1       1
       3       2       1       1       3       2       1       1       3       2
       1       1       3       2       1       1       3       2       1       1
       3       2       1       1       3       2       1       1       3       2
       1       1       3       2       1       1       3       2       1       1
       3       2       1       1       3       2       1       1       3       2
       1       1       3       2       1       1       3       2       1       1
       3       2       1       1       3       2       1       1       3       2
       1       1       3       2       1       1       3       2       1       1
       3       2       1       1       3       2       1       1       3       2
       1       1       3       2       1       1       3       2       1       1
       3       2       1       1       3       2       1       1       3       2
       1       1       3       2       1       1       3       2       1       1
       3       2       1       1       3       2       1       1       3       2
       1       1       3       2       1       1       3       2       1       1
       3       2       1       1       3       2       1       1       3       2
       1       1       3       2       1       1       3       2       1       1
       3       2       1       1       3       2       1       1       3       2
       1       1       3       2       1       1       3       2       1       1
       3       2       1       1       3       2       1       1       3       2
       1       1       3       2       1       1       3       2       1       1
       3       2       1       1       3       2       1       1       3       2
       1       1       3       2       1       1       3       2       1       1
       3       2       1       1       3       2       1       1       3       2
       1       1       3       2       1       1       3       2       1       1
       3       2       1       1       3       2       1       1       3       2
       1       1       3       2       1       1       3       2       1       1
       3       2       1       1       3       2       1       1       3       2
       1       1       3       2       1       1       3       2       1       1
       3       2       1       1       3       2       1       1       3       2
       1       1       3       2       1       1       3       2       1       1
       3       2       1       1       3       2       1       1       3       2
       1       1       3       2       1       1       3       2       1       1
       3       2       1       1       3       2       1       1       3       2
       1       1       3       2       1       1       3       2       1       1
       3       2       1       1       3       2       1       1       3       2
       1       1       3       2       1       1       3       2       1       1
       3       2       1       1       3       2       1       1       3       2
       1       1       3       2       1       1       3       2       1       1
       3       2       1       1       3       2       1       1       3       2
       1       1       3       2       1       1       3       2       1       1
       3       2       1       1       3       2       1       1       3       2
       1       1       3       2       1       1       3       2       1       1
       3       2       1       1       3       2       1       1       3       2
       1       1       3       2       1       1       3       2       1       1
       3       2       1       1       3       2       1       1       3       2
       1       1       3       2       1       1       3       2       1       1
       3       2       1       1       3       2       1       1       3       2
       1       1       3       2       1       1       3       2       1       1
       3       2       1       1       3       2       1       1       3       2
       1       1       3       2       1       1       3       2       1       1
       3       2       1       1       3       2       1       1       3       2
       1       1       3       2       1       1       3       2       1       1
       3       2       1       1       3       2       1       1       3       2
       1       1       3       2       1       1       3       2       1       1
       3       2       1       1       3       2       1       1       3       2
       1       1       3       2       1       1       3       2       1       1
       3       2       1       1       3       2       1       1       3       2
       1       1       3       2       1       1       3       2       1       1
       3       2       1       1       3       2       1       1       3       2
       1       1       3       2       1       1       3       2       1       1
       3       2       1       1       3       2       1       1       3       2
       1       1       3       2       1       1       3       2       1       1
       3       2       1       1       3       2       1       1       3       2
       1       1       3       2       1       1       3       2       1       1
       3       2       1       1       3       2       1       1       3       2
       1       1       3       2       1       1       3       2       1       1
       3       2       1       1       3       2       1       1       3       2
       1       1       3       2       1       1       3       2       1       1
       3       2       1       1       3       2       1       1       3       2
       1       1       3       2       1       1       3       2       1       1
       3       2       1       1       3       2       1       1       3       2
       1       1       3       2       1       1       3       2       1       1
       3       2       1       1       3       2       1       1       3       2
       1       1       3       2       1       1       3       2       1       1
       3       2       1       1       3       2       1       1       3       2
       1       1       3       2       1       1       3       2       1       1
       3       2       1       1       3       2       1       1       3       2
       1       1       3       2       1       1       3       2       1       1
       3       2       1       1       3       2       1       1       3       2
       1       1       3       2       1       1       3       2       1       1
       3       2       1       1       3       2       1       1       3       2
       1       1       3       2       1       1       3       2       1       1
       3       2       1       1       3       2       1       1       3       2
       1       1       3       2       1       1       3       2       1       1
       3       2       1       1       3       2       1       1       3       2
       1       1       3       2       1       1       3       2       1       1
       3       2       1       1       3       2       1       1       3       2
       1       1       3       2       1       1       3       2       1       1
       3       2       1       1       3       2       1       1       3       2
       1       1       3       2       1       1       3       2       1       1
       3       2       1       1       3       2       1       1       3       2
       1       1       3       2       1       1       3       2       1       1
       3       2       1       1       3       2       1       1       3       2
       1       1       3       2       1       1       3       2       1       1
       3       2       1       1       3       2       1       1       3       2
       1       1       3       2       1       1       3       2       1       1
       3       2       1       1       3       2       1       1       3       2
       1       1       3       2       1       1       3       2       1       1
       3       2       1       1       3       2       1       1       3       2
       1       1       3       2       1       1       3       2       1       1
       3       2       1       1       3       2       1       1       3       2
       1       1       3       2       1       1       3       2       1       1
       3       2       1       1       3       2       1       1       3       2
       1       1       3       2       1       1       3       2       1       1
       3       2       1       1       3       2       1       1       3       2
       1       1       3       2       1       1       3       2       1       1
       3       2       1       1       3       2       1       1       3       2
       1       1       3       2       1       1       3       2       1       1
       3       2       1       1       3       2       1       1       3       2
       1       1       3       2       1       1       3       2       1       1
       3       2       1       1       3       2       1       1       3       2
       1       1       3       2       1       1       3       2       1       1
       3       2       1       1       3       2       1       1       3       2
       1       1       3       2       1       1       3       2       1       1
       3       2       1       1       3       2       1       1       3       2
       1       1       3       2       1       1       3       2       1       1
       3       2       1       1       3       2       1       1       3       2
       1       1       3       2       1       1       3       2       1       1
       3       2       1       1       3       2       1       1       3       2
       1       1       3       2       1       1       3       2       1       1
       3       2       1       1       3       2       1       1       3       2
       1       1       3       2       1       1       3       2       1       1
       3       2       1       1       3       2       1       1       3       2
       1       1       3       2       1       1       3       2       1       1
       3       2       1       1       3       2       1       1       3       2
       1       1       3       2       1       1       3       2       1       1
       3       2       1       1       3       2       1       1       3       2
       1       1       3       2       1       1       3       2       1       1
       3       2       1       1       3       2       1       1       3       2
       1       1       3       2       1       1       3       2       1       1
       3       2       1       1       3       2       1       1       3       2
       1       1       3       2       1       1       3       2       1       1
       3       2       1       1       3       2       1       1       3       2
       1       1       3       2       1       1       3       2       1       1
       3       2       1       1       3       2       1       1       3       2
       1       1       3       2       1       1       3       2       1       1
       3       2       1       1       3       2       1       1       3       2
       1       1       3       2       1       1       3       2       1       1
       3       2       1       1       3       2       1       1       3       2
       1       1       3       2       1       1       3       2       1       1
       3       2       1       1       3       2       1       1       3       2
       1       1       3       2       1       1       3       2       1       1
       3       2       1       1       3       2       1       1       3       2
       1       1       3       2       1       1       3       2       1       1
       3       2       1       1       3       2       1       1       3       2
       1       1       3       2       1       1       3       2       1       1
       3       2       1       1       3       2       1       1       3       2
       1       1       3       2       1       1       3       2       1       1
       3       2       1       1       3       2       1       1       3       2
       1       1       3       2       1       1       3       2       1       1
       3       2       1       1       3       2       1       1       3       2
       1       1       3       2       1       1       3       2       1       1
       3       2       1       1       3       2       1       1       3       2
       1       1       3       2       1       1       3       2       1       1
       3       2       1       1       3       2       1       1       3       2
       1       1       3       2       1       1       3       2       1       1
       3       2       1       1       3       2       1       1       3       2
       1       1       3       2       1       1       3       2       1       1
       3       2       1       1       3       2       1       1       3       2
       1       1       3       2       1       1       3       2       1       1
       3       2       1       1       3       2       1       1       3       2
       1       1       3       2       1       1       3       2       1       1
       3       2       1       1       3       2       1       1       3       2
       1       1       3       2       1       1       3       2       1       1
       3       2       1       1       3       2       1       1       3       2
       1       1       3       2       1       1       3       2       1       1
       3       2       1       1       3       2       1       1       3       2
       1       1       3       2       1       1       3       2       1       1
       3       2       1       1       3       2       1       1       3       2
       1       1       3       2       1       1       3       2       1       1
       3       2       1       1       3       2       1       1       3       2
       1       1       3       2       1       1       3       2       1       1
       3       2       1       1       3       2       1       1       3       2
       1       1       3       2       1       1       3       2       1       1
       3       2       1       1       3       2       1       1       3       2
       1       1       3       2       1       1       3       2       1       1
       3       2       1       1       3       2       1       1       3       2
       1       1       3       2       1       1       3       2       1       1
       3       2       1       1       3       2       1       1       3       2
       1       1       3       2       1       1       3       2       1       1
       3       2       1       1       3       2       1       1       3       2
       1       1       3       2       1       1       3       2       1       1
       3       2       1       1       3       2       1       1       3       2
       1       1       3       2       1       1       3       2       1       1
       3       2       1       1       3       2       1       1       3       2
       1       1       3       2       1       1       3       2       1       1
       3       2       1       1       3       2       1       1       3       2
       1       1       3       2       1       1       3       2       1       1
       3       2       1       1       3       2       1       1       3       2
       1       1       3       2       1       1       3       2       1       1
       3       2       1       1       3       2       1       1       3       2
       1       1       3       2       1       1       3       2       1       1
       3       2       1       1       3       2       1       1       3       2
       1       1       3       2       1       1       3       2       1       1
       3       2       1       1       3       2       1       1       3       2
       1       1       3       2       1       1       3       2       1       1
       3       2       1       1       3       2       1       1       3       2
       1       1       3       2       1       1       3       2       1       1
       3       2       1       1       3       2       1       1       3       2
       1       1       3       2       1       1       3       2       1       1
       3       2       1       1       3       2       1       1       3       2
       1       1       3       2       1       1       3       2       1       1
       3       2       1       1       3       2       1       1       3       2
       1       1       3       2       1       1       3       2       1       1
       3       2       1       1       3       2       1       1       3       2
       1       1       3       2       1       1       3       2       1       1
       3       2       1       1       3       2       1       1       3       2
       1       1       3       2       1       1       3       2       1       1
       3       2       1       1       3       2       1       1       3       2
       1       1       3       2       1       1       3       2       1       1
       3       2       1       1       3       2       1       1       3       2
       1       1       3       2       1       1       3       2       1       1
       3       2       1       1       3       2       1       1       3       2
       1       1       3       2       1       1       3       2       1       1
       3       2       1       1       3       2       1       1       3       2
       1       1       3       2       1       1       3       2       1       1
       3       2       1       1       3       2       1       1       3       2
       1       1       3       2       1       1       3       2       1       1
       3       2       1       1       3       2       1       1       3       2
       1       1       3       2       1       1       3       2       1       1
       3       2       1       1       3       2       1       1       3       2
       1       1       3       2       1       1       3       2       1       1
       3       2       1       1       3       2       1       1       3       2
       1       1       3       2       1       1       3       2       1       1
       3       2       1       1       3       2       1       1       3       2
       1       1       3       2       1       1       3       2       1       1
       3       2       1       1       3       2       1       1       3       2
       1       1       3       2       1       1       3       2       1       1
       3       2       1       1       3       2       1       1       3       2
       1       1       3       2       1       1       3       2       1       1
       3       2       1       1       3       2       1       1       3       2
       1       1       3       2       1       1       3       2       1       1
       3       2       1       1       3       2       1       1       3       2
       1       1       3       2       1       1       3       2       1       1
       3       2       1       1       3       2       1       1       3       2
       1       1       3       2       1       1       3       2       1       1
       3       2       1       1       3       2       1       1       3       2
       1       1       3       2       1       1       3       2       1       1
       3       2       1       1       3       2       1       1       3       2
       1       1       3       2       1       1       3       2       1       1
       3       2       1       1       3       2       1       1       3       2
       1       1       3       2       1       1       3       2       1       1
       3       2       1       1       3       2       1       1       3       2
       1       1       3       2       1       1       3       2       1       1
       3       2       1       1       3       2       1       1       3       2
       1       1       3       2       1       1       3       2       1       1
       3       2       1       1       3       2       1       1       3       2
       1       1       3       2       1       1       3       2       1       1
       3       2       1       1       3       2       1       1       3       2
       1       1       3       2       1       1       3       2       1       1
       3       2       1       1       3       2       1       1       3       2
       1       1       3       2       1       1       3       2       1       1
       3       2       1       1       3       2       1       1       3       2
       1       1       3       2       1       1       3       2       1       1
       3       2       1       1       3       2       1       1       3       2
       1       1       3       2       1       1       3       2       1       1
       3       2       1       1       3       2       1       1       3       2
       1       1       3       2       1       1       3       2       1       1
       3       2       1       1       3       2       1       1       3       2
       1       1       3       2       1       1       3       2       1       1
       3       2       1       1       3       2       1       1       3       2
       1       1       3       2       1       1       3       2       1       1
       3       2       1       1       3       2       1       1       3       2
       1       1       3       2       1       1       3       2       1       1
       3       2       1       1       3       2       1       1       3       2
       1       1       3       2       1       1       3       2       1       1
       3       2       1       1       3       2       1       1       3       2
       1       1       3       2       1       1       3       2       1       1
       3       2       1       1       3       2       1       1       3       2
       1       1       3       2       1       1       3       2       1       1
       3       2       1       1       3       2       1       1       3       2
       1       1       3       2       1       1       3       2       1       1
       3       2       1       1       3       2       1       1       3       2
       1       1       3       2       1       1       3       2       1       1
       3       2       1       1       3       2       1       1       3       2
       1       1       3       2       1       1       3       2       1       1
       3       2       1       1       3       2       1       1       3       2
       1       1       3       2       1       1       3       2       1       1
       3       2       1       1       3       2       1       1       3       2
       1       1       3       2       1       1       3       2       1       1
       3       2       1       1       3       2       1       1       3       2
       1       1       3       2       1       1       3       2       1       1
       3       2       1       1       3       2       1       1       3       2
       1       1       3       2       1       1       3       2       1       1
       3       2       1       1       3       2       1       1       3       2
       1       1       3       2       1       1       3       2       1       1
       3       2       1       1       3       2       1       1       3       2
       1       1       3       2       1       1       3       2       1       1
       3       2       1       1       3       2       1       1       3       2
       1       1       3       2       1       1       3       2       1       1
       3       2       1       1       3       2       1       1       3       2
       1       1       3       2       1       1       3       2       1       1
       3       2       1       1       3       2       1       1       3       2
       1       1       3       2       1       1       3       2       1       1
       3       2       1       1       3       2       1       1       3       2
       1       1       3       2       1       1       3       2       1       1
       3       2       1       1       3       2       1       1       3       2
       1       1       3       2       1       1       3       2       1       1
       3       2       1       1       3       2       1       1       3       2
       1       1       3       2       1       1       3       2       1       1
       3       2       1       1       3       2       1       1       3       2
       1       1       3       2       1       1       3       2       1       1
       3       2       1       1       3       2       1       1       3       2
       1       1       3       2       1       1       3       2       1       1
       3       2       1       1       3       2       1       1       3       2
       1       1       3       2       1       1       3       2       1       1
       3       2       1       1       3       2       1       1       3       2
       1       1       3       2       1       1       3       2       1       1
       3       2       1       1       3       2       1       1       3       2
       1       1       3       2       1       1       3       2       1       1
       3       2       1       1       3       2       1       1       3       2
       1       1       3       2       1       1       3       2       1       1
       3       2       1       1       3       2       1       1       3       2
       1       1       3       2       1       1       3       2       1       1
       3       2       1       1       3       2       1       1       3       2
       1       1       3       2       1       1       3       2       1       1
       3       2       1       1       3       2       1       1       3       2
       1       1       3       2       1       1       3       2       1       1
       3       2       1       1       3       2       1       1       3       2
       1       1       3       2       1       1       3       2       1       1
       3       2       1       1       3       2       1       1       3       2
       1       1       3       2       1       1       3       2       1       1
       3       2       1       1       3       2       1       1       3       2
       1       1       3       2       1       1       3       2       1       1
       3       2       1       1       3       2       1       1       3       2
       1       1       3       2       1       1       3       2       1       1
       3       2       1       1       3       2       1       1       3       2
       1       1       3       2       1       1       3       2       1       1
       3       2       1       1       3       2       1       1       3       2
       1       1       3       2       1       1       3       2       1       1
       3       2       1       1       3       2       1       1       3       2
       1       1       3       2       1       1       3       2       1       1
       3       2       1       1       3       2       1       1       3       2
       1       1       3       2       1       1       3       2       1       1
       3       2       1       1       3       2       1       1       3       2
       1       1       3       2       1       1       3       2       1       1
       3       2       1       1       3       2       1       1       3       2
       1       1       3       2       1       1       3       2       1       1
       3       2       1       1       3       2       1       1       3       2
       1       1       3       2       1       1       3       2       1       1
       3       2       1       1       3       2       1       1       3       2
       1       1       3       2       1       1       3       2       1       1
       3       2       1       1       3       2       1       1       3       2
       1       1       3       2       1       1       3       2       1       1
       3       2       1       1       3       2       1       1       3       2
       1       1       3       2       1       1       3       2       1       1
       3       2       1       1       3       2       1       1       3       2
       1       1       3       2       1       1       3       2       1       1
       3       2       1       1       3       2       1       1       3       2
       1       1       3       2       1       1       3       2       1       1
       3       2       1       1       3       2       1       1       3       2
       1       1       3       2       1       1       3       2       1       1
       3       2       1       1       3       2       1       1       3       2
       1       1       3       2       1       1       3       2       1       1
       3       2       1       1       3       2       1       1       3       2
       1       1       3       2       1       1       3       2       1       1
       3       2       1       1       3       2       1       1       3       2
       1       1       3       2       1       1       3       2       1       1
       3       2       1       1       3       2       1       1       3       2
       1       1       3       2       1       1       3       2       1       1
       3       2       1       1       3       2       1       1       3       2
       1       1       3       2       1       1       3       2       1       1
       3       2       1       1       3       2       1       1       3       2
       1       1       3       2       1       1       3       2       1       1
       3       2       1       1       3       2       1       1       3       2
       1       1       3       2       1       1       3       2       1       1
       3       2       1       1       3       2       1       1       3       2
       1       1       3       2       1       1       3       2       1       1
       3       2       1       1       3       2       1       1       3       2
       1       1       3       2       1       1       3       2       1       1
       3       2       1       1       3       2       1       1       3       2
       1       1       3       2       1       1       3       2       1       1
       3       2       1       1       3       2       1       1       3       2
       1       1       3       2       1       1       3       2       1       1
       3       2       1       1       3       2       1       1       3       2
       1       1       3       2       1       1       3       2       1       1
       3       2       1       1       3       2       1       1       3       2
       1       1       3       2       1       1       3       2       1       1
       3       2       1       1       3       2       1       1       3       2
       1       1       3       2       1       1       3       2       1       1
       3       2       1       1       3       2       1       1       3       2
       1       1       3       2       1       1       3       2       1       1
       3       2       1       1       3       2       1       1       3       2
       1       1       3       2       1       1       3       2       1       1
       3       2       1       1       3       2       1       1       3       2
       1       1       3       2       1       1       3       2       1       1
       3       2       1       1       3       2       1       1       3       2
       1       1       3       2       1       1       3       2       1       1
       3       2       1       1       3       2       1       1       3       2
       1       1       3       2       1       1       3       2       1       1
       3       2       1       1       3       2       1       1       3       2
       1       1       3       2       1       1       3       2       1       1
       3       2       1       1       3       2       1       1       3       2
       1       1       3       2       1       1       3       2       1       1
       3       2       1       1       3       2       1       1       3       2
       1       1       3       2       1       1       3       2       1       1
       3       2       1       1       3       2       1       1       3       2
       1       1       3       2       1       1       3       2       1       1
       3       2       1       1       3       2       1       1       3       2
       1       1       3       2       1       1       3       2       1       1
       3       2       1       1       3       2       1       1       3       2
       1       1       3       2       1       1       3       2       1       1
       3       2       1       1       3       2       1       1       3       2
       1       1       3       2       1       1       3       2       1       1
       3       2       1       1       3       2       1       1       3       2
       1       1       3       2       1       1       3       2       1       1
       3       2       1       1       3       2       1       1       3       2
       1       1       3       2       1       1       3       2       1       1
       3       2       1       1       3       2       1       1       3       2
       1       1       3       2       1       1       3       2       1       1
       3       2       1       1       3       2       1       1       3       2
       1       1       3       2       1       1       3       2       1       1
       3       2       1       1       3       2       1       1       3       2
       1       1       3       2       1       1       3       2       1       1
       3       2       1       1       3       2       1       1       3       2
       1       1       3       2       1       1       3       2       1       1
       3       2       1       1       3       2       1       1       3       2
       1       1       3       2       1       1       3       2       1       1
       3       2       1       1       3       2       1       1       3       2
       1       1       3       2       1       1       3       2       1       1
       3       2       1       1       3       2       1       1       3       2
       1       1       3       2       1       1       3       2       1       1
       3       2       1       1       3       2       1       1       3       2
       1       1       3       2       1       1       3       2       1       1
       3       2       1       1       3       2       1       1       3       2
       1       1       3       2       1       1       3       2       1       1
       3       2       1       1       3       2       1       1       3       2
       1       1       3       2       1       1       3       2       1       1
       3       2       1       1       3       2       1       1       3       2
       1       1       3       2       1       1       3       2       1       1
       3       2       1       1       3       2       1       1       3       2
       1       1       3       2       1       1       3       2       1       1
       3       2       1       1       3       2       1       1       3       2
       1       1       3       2       1       1       3       2       1       1
       3       2       1       1       3       2       1       1       3       2
       1       1       3       2       1       1       3       2       1       1
       3       2       1       1       3       2       1       1       3       2
       1       1       3       2       1       1       3       2       1       1
       3       2       1       1       3       2       1       1       3       2
       1       1       3       2       1       1       3       2       1       1
       3       2       1       1       3       2       1       1       3       2
       1       1       3       2       1       1       3       2       1       1
       3       2       1       1       3       2       1       1       3       2
       1       1       3       2       1       1       3       2       1       1
       3       2       1       1       3       2       1       1       3       2
       1       1       3       2       1       1       3       2       1       1
       3       2       1       1       3       2       1       1       3       2
       1       1       3       2       1       1       3       2       1       1
       3       2       1       1       3       2       1       1       3       2
       1       1       3       2       1       1       3       2       1       1
       3       2       1       1       3       2       1       1       3       2
       1       1       3       2       1       1       3       2       1       1
       3       2       1       1       3       2       1       1       3       2
       1       1       3       2       1       1       3       2       1       1
       3       2       1       1       3       2       1       1       3       2
       1       1       3       2       1       1       3       2       1       1
       3       2       1       1       3       2       1       1       3       2
       1       1       3       2       1       1       3       2       1       1
       3       2       1       1       3       2       1       1       3       2
       1       1       3       2       1       1       3       2       1       1
       3       2       1       1       3       2       1       1       3       2
       1       1       3       2       1       1       3       2       1       1
       3       2       1       1       3       2       1       1       3       2
       1       1       3       2       1       1       3       2       1       1
       3       2       1       1       3       2       1       1       3       2
       1       1       3       2       1       1       3       2       1       1
       3       2       1       1       3       2       1       1       3       2
       1       1       3       2       1       1       3       2       1       1
       3       2       1       1       3       2       1       1       3       2
       1       1       3       2       1       1       3       2       1       1
       3       2       1       1       3       2       1       1       3       2
       1       1       3       2       1       1       3       2       1       1
       3       2       1       1       3       2       1       1       3       2
       1       1       3       2       1       1       3       2       1       1
       3       2       1       1       3       2       1       1       3       2
       1       1       3       2       1       1       3       2       1       1
       3       2       1       1       3       2       1       1       3       2
       1       1       3       2       1       1       3       2       1       1
       3       2       1       1       3       2       1       1       3       2
       1       1       3       2       1       1       3       2       1       1
       3       2       1       1       3       2       1       1       3       2
       1       1       3       2       1       1       3       2       1       1
       3       2       1       1       3       2       1       1       3       2
       1       1       3       2       1       1       3       2       1       1
       3       2       1       1       3       2       1       1       3       2
       1       1       3       2       1       1       3       2       1       1
       3       2       1       1       3       2       1       1       3       2
       1       1       3       2       1       1       3       2       1       1
       3       2       1       1       3       2       1       1       3       2
       1       1       3       2       1       1       3       2       1       1
       3       2       1       1       3       2       1       1       3       2
       1       1       3       2       1       1       3       2       1       1
       3       2       1       1       3       2       1       1       3       2
       1       1       3       2       1       1       3       2       1       1
       3       2       1       1       3       2       1       1       3       2
       1       1       3       2       1       1       3       2       1       1
       3       2       1       1       3       2       1       1       3       2
       1       1       3       2       1       1       3       2       1       1
       3       2       1       1       3       2       1       1       3       2
       1       1       3       2       1       1       3       2       1       1
       3       2       1       1       3       2       1       1       3       2
       1       1       3       2       1       1       3       2       1       1
       3       2       1       1       3       2       1       1       3       2
       1       1       3       2       1       1       3       2       1       1
       3       2       1       1       3       2       1       1       3       2
       1       1       3       2       1       1       3       2       1       1
       3       2       1       1       3       2       1       1       3       2
       1       1       3       2       1       1       3       2       1       1
       3       2       1       1       3       2       1       1       3       2
       1       1       3       2       1       1       3       2       1       1
       3       2       1       1       3       2       1       1       3       2
       1       1       3       2       1       1       3       2       1       1
       3       2       1       1       3       2       1       1       3       2
       1       1       3       2       1       1       3       2       1       1
       3       2       1       1       3       2       1       1       3       2
       1       1       3       2       1       1       3       2       1       1
       3       2       1       1       3       2       1       1       3       2
       1       1       3       2       1       1       3       2       1       1
       3       2       1       1       3       2       1       1       3       2
       1       1       3       2       1       1       3       2       1       1
       3       2       1       1       3       2       1       1       3       2
       1       1       3       2       1       1       3       2       1       1
       3       2       1       1       3       2       1       1       3       2
       1       1       3       2       1       1       3       2       1       1
       3       2       1       1       3       2       1       1       3       2
       1       1       3       2       1       1       3       2       1       1
       3       2       1       1       3       2       1       1       3       2
       1       1       3       2       1       1       3       2       1       1
       3       2       1       1       3       2       1       1       3       2
       1       1       3       2       1       1       3       2       1       1
       3       2       1       1       3       2       1       1       3       2
       1       1       3       2       1       1       3       2       1       1
       3       2       1       1       3       2       1       1       3       2
       1       1       3       2       1       1       3       2       1       1
       3       2       1       1       3       2       1       1       3       2
       1       1       3       2       1       1       3       2       1       1
       3       2       1       1       3       2       1       1       3       2
       1       1       3       2       1       1       3       2       1       1
       3       2       1       1       3       2       1       1       3       2
       1       1       3       2       1       1       3       2       1       1
       3       2       1       1       3       2       1       1       3       2
       1       1       3       2       1       1       3       2       1       1
       3       2       1       1       3       2       1       1       3       2
       1       1       3       2       1       1       3       2       1       1
       3       2       1       1       3       2       1       1       3       2
       1       1       3       2       1       1       3       2       1       1
       3       2       1       1       3       2       1       1       3       2
       1       1       3       2       1       1       3       2       1       1
       3       2       1       1       3       2       1       1       3       2
       1       1       3       2       1       1       3       2       1       1
       3       2       1       1       3       2       1       1       3       2
       1       1       3       2       1       1       3       2       1       1
       3       2       1       1       3       2       1       1       3       2
       1       1       3       2       1       1       3       2       1       1
       3       2       1       1       3       2       1       1       3       2
       1       1       3       2       1       1       3       2       1       1
       3       2       1       1       3       2       1       1       3       2
       1       1       3       2       1       1       3       2       1       1
       3       2       1       1       3       2       1       1       3       2
       1       1       3       2       1       1       3       2       1       1
       3       2       1       1       3       2       1       1       3       2
       1       1       3       2       1       1       3       2       1       1
       3       2       1       1       3       2       1       1       3       2
       1       1       3       2       1       1       3       2       1       1
       3       2       1       1       3       2       1       1       3       2
       1       1       3       2       1       1       3       2       1       1
       3       2       1       1       3       2       1       1       3       2
       1       1       3       2       1       1       3       2       1       1
       3       2       1       1       3       2       1       1       3       2
       1       1       3       2       1       1       3       2       1       1
       3       2       1       1       3       2       1       1       3       2
       1       1       3       2       1       1       3       2       1       1
       3       2       1       1       3       2       1       1       3       2
       1       1       3       2       1       1       3       2       1       1
       3       2       1       1       3       2       1       1       3       2
       1       1       3       2       1       1       3       2       1       1
       3       2       1       1       3       2       1       1       3       2
       1       1       3       2       1       1       3       2       1       1
       3       2       1       1       3       2       1       1       3       2
       1       1       3       2       1       1       3       2       1       1
       3       2       1       1       3       2       1       1       3       2
       1       1       3       2       1       1       3       2       1       1
       3       2       1       1       3       2       1       1       3       2
       1       1       3       2       1       1       3       2       1       1
       3       2       1       1       3       2       1       1       3       2
       1       1       3       2       1       1       3       2       1       1
       3       2       1       1       3       2       1       1       3       2
       1       1       3       2       1       1       3       2       1       1
       3       2       1       1       3       2       1       1       3       2
       1       1       3       2       1       1       3       2       1       1
       3       2       1       1       3       2       1       1       3       2
       1       1       3       2       1       1       3       2       1       1
       3       2       1       1       3       2       1       1       3       2
       1       1       3       2       1       1       3       2       1       1
       3       2       1       1       3       2       1       1       3       2
       1       1       3       2       1       1       3       2       1       1
       3       2       1       1       3       2       1       1       3       2
       1       1       3       2       1       1       3       2       1       1
       3       2       1       1       3       2       1       1       3       2
       1       1       3       2       1       1       3       2       1       1
       3       2       1       1       3       2       1       1       3       2
       1       1       3       2       1       1       3       2       1       1
       3       2       1       1       3       2       1       1       3       2
       1       1       3       2       1       1       3       2       1       1
       3       2       1       1       3       2       1       1       3       2
       1       1       3       2       1       1       3       2       1       1
       3       2       1       1       3       2       1       1       3       2
       1       1       3       2       1       1       3       2       1       1
       3       2       1       1       3       2       1       1       3       2
       1       1       3       2       1       1       3       2       1       1
       3       2       1       1       3       2       1       1       3       2
       1       1       3       2       1       1       3       2       1       1
       3       2       1       1       3       2       1       1       3       2
       1       1       3       2       1       1       3       2       1       1
       3       2       1       1       3       2       1       1       3       2
       1       1       3       2       1       1       3       2       1       1
       3       2       1       1       3       2       1       1       3       2
       1       1       3       2       1       1       3       2       1       1
       3       2       1       1       3       2       1       1       3       2
       1       1       3       2       1       1       3       2       1       1
       3       2       1       1       3       2       1       1       3       2
       1       1       3       2       1       1       3       2       1       1
       3       2       1       1       3       2       1       1       3       2
       1       1       3       2       1       1       3       2       1       1
       3       2       1       1       3       2       1       1       3       2
       1       1       3       2       1       1       3       2       1       1
       3       2       1       1       3       2       1       1       3       2
       1       1       3       2       1       1       3       2       1       1
       3       2       1       1       3       2       1       1       3       2
       1       1       3       2       1       1       3       2       1       1
       3       2       1       1       3       2       1       1       3       2
       1       1       3       2       1       1       3       2       1       1
       3       2       1       1       3       2       1       1       3       2
       1       1       3       2       1       1       3       2       1       1
       3       2       1       1       3       2       1       1       3       2
       1       1       3       2       1       1       3       2       1       1
       3       2       1       1       3       2       1       1       3       2
       1       1       3       2       1       1       3       2       1       1
       3       2       1       1       3       2       1       1       3       2
       1       1       3       2       1       1       3       2       1       1
       3       2       1       1       3       2       1       1       3       2
       1       1       3       2       1       1       3       2       1       1
       3       2       1       1       3       2       1       1       3       2
       1       1       3       2       1       1       3       2       1       1
       3       2       1       1       3       2       1       1       3       2
       1       1       3       2       1       1       3       2       1       1
       3       2       1       1       3       2       1       1       3       2
       1       1       3       2       1       1       3       2       1       1
       3       2       1       1       3       2       1       1       3       2
       1       1       3       2       1       1       3       2       1       1
       3       2       1       1       3       2       1       1       3       2
       1       1       3       2       1       1       3       2       1       1
       3       2       1       1       3       2       1       1       3       2
       1       1       3       2       1       1       3       2       1       1
       3       2       1       1       3       2       1       1       3       2
       1       1       3       2       1       1       3       2       1       1
       3       2       1       1       3       2       1       1       3       2
       1       1       3       2       1       1       3       2       1       1
       3       2       1       1       3       2       1       1       3       2
       1       1       3       2       1       1       3       2       1       1
       3       2       1       1       3       2       1       1       3       2
       1       1       3       2       1       1       3       2       1       1
       3       2       1       1       3       2       1       1       3       2
       1       1       3       2       1       1       3       2       1       1
       3       2       1       1       3       2       1       1       3       2
       1       1       3       2       1       1       3       2       1       1
       3       2       1       1       3       2       1       1       3       2
       1       1       3       2       1       1       3       2       1       1
       3       2       1       1       3       2       1       1       3       2
       1       1       3       2       1       1       3       2       1       1
       3       2       1       1       3       2       1       1       3       2
       1       1       3       2       1       1       3       2       1       1
       3       2       1       1       3       2       1       1       3       2
       1       1       3       2       1       1       3       2       1       1
       3       2       1       1       3       2       1       1       3       2
       1       1       3       2       1       1       3       2       1       1
       3       2       1       1       3       2       1       1       3       2
       1       1       3       2       1       1       3       2       1       1
       3       2       1       1       3       2       1       1       3       2
       1       1       3       2       1       1       3       2       1       1
       3       2       1       1       3       2       1       1       3       2
       1       1       3       2       1       1       3       2       1       1
       3       2       1       1       3       2       1       1       3       2
       1       1       3       2       1       1       3       2       1       1
       3       2       1       1       3       2       1       1       3       2
       1       1       3       2       1       1       3       2       1       1
       3       2       1       1       3       2       1       1       3       2
       1       1       3       2       1       1       3       2       1       1
       3       2       1       1       3       2       1       1       3       2
       1       1       3       2       1       1       3       2       1       1
       3       2       1       1       3       2       1       1       3       2
       1       1       3       2       1       1       3       2       1       1
       3       2       1       1       3       2       1       1       3       2
       1       1       3       2       1       1       3       2       1       1
       3       2       1       1       3       2       1       1       3       2
       1       1       3       2       1       1       3       2       1       1
       3       2       1       1       3       2       1       1       3       2
       1       1       3       2       1       1       3       2       1       1
       3       2       1       1       3       2       1       1       3       2
       1       1       3       2       1       1       3       2       1       1
       3       2       1       1       3       2       1       1       3       2
       1       1       3       2       1       1       3       2       1       1
       3       2       1       1       3       2       1       1       3       2
       1       1       3       2       1       1       3       2       1       1
       3       2       1       1       3       2       1       1       3       2
       1       1       3       2       1       1       3       2       1       1
       3       2       1       1       3       2       1       1       3       2
       1       1       3       2       1       1       3       2       1       1
       3       2       1       1       3       2       1       1       3       2
       1       1       3       2       1       1       3       2       1       1
       3       2       1       1       3       2       1       1       3       2
       1       1       3       2       1       1       3       2       1       1
       3       2       1       1       3       2       1       1       3       2
       1       1       3       2       1       1       3       2       1       1
       3       2       1       1       3       2       1       1       3       2
       1       1       3       2       1       1       3       2       1       1
       3       2       1       1       3       2       1       1       3       2
       1       1       3       2       1       1       3       2       1       1
       3       2       1       1       3       2       1       1       3       2
       1       1       3       2       1       1       3       2       1       1
       3       2       1       1       3       2       1       1       3       2
       1       1       3       2       1       1       3       2       1       1
       3       2       1       1       3       2       1       1       3       2
       1       1       3       2       1       1       3       2       1       1
       3       2       1       1       3       2       1       1       3       2
       1       1       3       2       1       1       3       2       1       1
       3       2       1       1       3       2       1       1       3       2
       1       1       3       2       1       1       3       2       1       1
       3       2       1       1       3       2       1       1       3       2
       1       1       3       2       1       1       3       2       1       1
       3       2       1       1       3       2       1       1       3       2
       1       1       3       2       1       1       3       2       1       1
       3       2       1       1       3       2       1       1       3       2
       1       1       3       2       1       1       3       2       1       1
       3       2       1       1       3       2       1       1       3       2
       1       1       3       2       1       1       3       2       1       1
       3       2       1       1       3       2       1       1       3       2
       1       1       3       2       1       1       3       2       1       1
       3       2       1       1       3       2       1       1       3       2
       1       1       3       2       1       1       3       2       1       1
       3       2       1       1       3       2       1       1       3       2
       1       1       3       2       1       1       3       2       1       1
       3       2       1       1       3       2       1       1       3       2
       1       1
%FLAG NONBONDED_PARM_INDEX                                                      
%FORMAT(10I8)                                                                   
       1       2       4       7      11      16      22      29      37      46
      56      67      79      92       2       3       5       8      12      17
      23      30      38      47      57      68      80      93       4       5
       6       9      13      18      24      31      39      48      58      69
      81      94       7       8       9      10      14      19      25      32
      40      49      59      70      82      95      11      12      13      14
      15      20      26      33      41      50      60      71      83      96
      16      17      18      19      20      21      27      34      42      51
      61      72      84      97      22      23      24      25      26      27
      28      35      43      52      62      73      85      98      29      30
      31      32      33      34      35      36      44      53      63      74
      86      99      37      38      39      40      41      42      43      44
      45      54      64      75      87     100      46      47      48      49
      50      51      52      53      54      55      65      76      88     101
      56      57      58      59      60      61      62      63      64      65
      66      77      89     102      67      68      69      70      71      72
      73      74      75      76      77      78      90     103      79      80
      81      82      83      84      85      86      87      88      89      90
      91     104      92      93      94      95      96      97      98      99
     100     101     102     103     104     105
%FLAG RESIDUE_LABEL                                                             
%FORMAT(20a4)                                                                   
Na+ Cl- Na+ Cl- Na+ Cl- Na+ Cl- Na+ Cl- LIG WAT WAT WAT WAT WAT WAT WAT WAT WAT 
WAT WAT WAT WAT WAT WAT WAT WAT WAT WAT WAT WAT WAT WAT WAT WAT WAT WAT WAT WAT 
WAT WAT WAT WAT WAT WAT WAT WAT WAT WAT WAT WAT WAT WAT WAT WAT WAT WAT WAT WAT 
WAT WAT WAT WAT WAT WAT WAT WAT WAT WAT WAT WAT WAT WAT WAT WAT WAT WAT WAT WAT 
WAT WAT WAT WAT WAT WAT WAT WAT WAT WAT WAT WAT WAT WAT WAT WAT WAT WAT WAT WAT 
WAT WAT WAT WAT WAT WAT WAT WAT WAT WAT WAT WAT WAT WAT WAT WAT WAT WAT WAT WAT 
WAT WAT WAT WAT WAT WAT WAT WAT WAT WAT WAT WAT WAT WAT WAT WAT WAT WAT WAT WAT 
WAT WAT WAT WAT WAT WAT WAT WAT WAT WAT WAT WAT WAT WAT WAT WAT WAT WAT WAT WAT 
WAT WAT WAT WAT WAT WAT WAT WAT WAT WAT WAT WAT WAT WAT WAT WAT WAT WAT WAT WAT 
WAT WAT WAT WAT WAT WAT WAT WAT WAT WAT WAT WAT WAT WAT WAT WAT WAT WAT WAT WAT 
WAT WAT WAT WAT WAT WAT WAT WAT WAT WAT WAT WAT WAT WAT WAT WAT WAT WAT WAT WAT 
WAT WAT WAT WAT WAT WAT WAT WAT WAT WAT WAT WAT WAT WAT WAT WAT WAT WAT WAT WAT 
WAT WAT WAT WAT WAT WAT WAT WAT WAT WAT WAT WAT WAT WAT WAT WAT WAT WAT WAT WAT 
WAT WAT WAT WAT WAT WAT WAT WAT WAT WAT WAT WAT WAT WAT WAT WAT WAT WAT WAT WAT 
WAT WAT WAT WAT WAT WAT WAT WAT WAT WAT WAT WAT WAT WAT WAT WAT WAT WAT WAT WAT 
WAT WAT WAT WAT WAT WAT WAT WAT WAT WAT WAT WAT WAT WAT WAT WAT WAT WAT WAT WAT 
WAT WAT WAT WAT WAT WAT WAT WAT WAT WAT WAT WAT WAT WAT WAT WAT WAT WAT WAT WAT 
WAT WAT WAT WAT WAT WAT WAT WAT WAT WAT WAT WAT WAT WAT WAT WAT WAT WAT WAT WAT 
WAT WAT WAT WAT WAT WAT WAT WAT WAT WAT WAT WAT WAT WAT WAT WAT WAT WAT WAT WAT 
WAT WAT WAT WAT WAT WAT WAT WAT WAT WAT WAT WAT WAT WAT WAT WAT WAT WAT WAT WAT 
WAT WAT WAT WAT WAT WAT WAT WAT WAT WAT WAT WAT WAT WAT WAT WAT WAT WAT WAT WAT 
WAT WAT WAT WAT WAT WAT WAT WAT WAT WAT WAT WAT WAT WAT WAT WAT WAT WAT WAT WAT 
WAT WAT WAT WAT WAT WAT WAT WAT WAT WAT WAT WAT WAT WAT WAT WAT WAT WAT WAT WAT 
WAT WAT WAT WAT WAT WAT WAT WAT WAT WAT WAT WAT WAT WAT WAT WAT WAT WAT WAT WAT 
WAT WAT WAT WAT WAT WAT WAT WAT WAT WAT WAT WAT WAT WAT WAT WAT WAT WAT WAT WAT 
WAT WAT WAT WAT WAT WAT WAT WAT WAT WAT WAT WAT WAT WAT WAT WAT WAT WAT WAT WAT 
WAT WAT WAT WAT WAT WAT WAT WAT WAT WAT WAT WAT WAT WAT WAT WAT WAT WAT WAT WAT 
WAT WAT WAT WAT WAT WAT WAT WAT WAT WAT WAT WAT WAT WAT WAT WAT WAT WAT WAT WAT 
WAT WAT WAT WAT WAT WAT WAT WAT WAT WAT WAT WAT WAT WAT WAT WAT WAT WAT WAT WAT 
WAT WAT WAT WAT WAT WAT WAT WAT WAT WAT WAT WAT WAT WAT WAT WAT WAT WAT WAT WAT 
WAT WAT WAT WAT WAT WAT WAT WAT WAT WAT WAT WAT WAT WAT WAT WAT WAT WAT WAT WAT 
WAT WAT WAT WAT WAT WAT WAT WAT WAT WAT WAT WAT WAT WAT WAT WAT WAT WAT WAT WAT 
WAT WAT WAT WAT WAT WAT WAT WAT WAT WAT WAT WAT WAT WAT WAT WAT WAT WAT WAT WAT 
WAT WAT WAT WAT WAT WAT WAT WAT WAT WAT WAT WAT WAT WAT WAT WAT WAT WAT WAT WAT 
WAT WAT WAT WAT WAT WAT WAT WAT WAT WAT WAT WAT WAT WAT WAT WAT WAT WAT WAT WAT 
WAT WAT WAT WAT WAT WAT WAT WAT WAT WAT WAT WAT WAT WAT WAT WAT WAT WAT WAT WAT 
WAT WAT WAT WAT WAT WAT WAT WAT WAT WAT WAT WAT WAT WAT WAT WAT WAT WAT WAT WAT 
WAT WAT WAT WAT WAT WAT WAT WAT WAT WAT WAT WAT WAT WAT WAT WAT WAT WAT WAT WAT 
WAT WAT WAT WAT WAT WAT WAT WAT WAT WAT WAT WAT WAT WAT WAT WAT WAT WAT WAT WAT 
WAT WAT WAT WAT WAT WAT WAT WAT WAT WAT WAT WAT WAT WAT WAT WAT WAT WAT WAT WAT 
WAT WAT WAT WAT WAT WAT WAT WAT WAT WAT WAT WAT WAT WAT WAT WAT WAT WAT WAT WAT 
WAT WAT WAT WAT WAT WAT WAT WAT WAT WAT WAT WAT WAT WAT WAT WAT WAT WAT WAT WAT 
WAT WAT WAT WAT WAT WAT WAT WAT WAT WAT WAT WAT WAT WAT WAT WAT WAT WAT WAT WAT 
WAT WAT WAT WAT WAT WAT WAT WAT WAT WAT WAT WAT WAT WAT WAT WAT WAT WAT WAT WAT 
WAT WAT WAT WAT WAT WAT WAT WAT WAT WAT WAT WAT WAT WAT WAT WAT WAT WAT WAT WAT 
WAT WAT WAT WAT WAT WAT WAT WAT WAT WAT WAT WAT WAT WAT WAT WAT WAT WAT WAT WAT 
WAT WAT WAT WAT WAT WAT WAT WAT WAT WAT WAT WAT WAT WAT WAT WAT WAT WAT WAT WAT 
WAT WAT WAT WAT WAT WAT WAT WAT WAT WAT WAT WAT WAT WAT WAT WAT WAT WAT WAT WAT 
WAT WAT WAT WAT WAT WAT WAT WAT WAT WAT WAT WAT WAT WAT WAT WAT WAT WAT WAT WAT 
WAT WAT WAT WAT WAT WAT WAT WAT WAT WAT WAT WAT WAT WAT WAT WAT WAT WAT WAT WAT 
WAT WAT WAT WAT WAT WAT WAT WAT WAT WAT WAT WAT WAT WAT WAT WAT WAT WAT WAT WAT 
WAT WAT WAT WAT WAT WAT WAT WAT WAT WAT WAT WAT WAT WAT WAT WAT WAT WAT WAT WAT 
WAT WAT WAT WAT WAT WAT WAT WAT WAT WAT WAT WAT WAT WAT WAT WAT WAT WAT WAT WAT 
WAT WAT WAT WAT WAT WAT WAT WAT WAT WAT WAT WAT WAT WAT WAT WAT WAT WAT WAT WAT 
WAT WAT WAT WAT WAT WAT WAT WAT WAT WAT WAT WAT WAT WAT WAT WAT WAT WAT WAT WAT 
WAT WAT WAT WAT WAT WAT WAT WAT WAT WAT WAT WAT WAT WAT WAT WAT WAT WAT WAT WAT 
WAT WAT WAT WAT WAT WAT WAT WAT WAT WAT WAT WAT WAT WAT WAT WAT WAT WAT WAT WAT 
WAT WAT WAT WAT WAT WAT WAT WAT WAT WAT WAT WAT WAT WAT WAT WAT WAT WAT WAT WAT 
WAT WAT WAT WAT WAT WAT WAT WAT WAT WAT WAT WAT WAT WAT WAT WAT WAT WAT WAT WAT 
WAT WAT WAT WAT WAT WAT WAT WAT WAT WAT WAT WAT WAT WAT WAT WAT WAT WAT WAT WAT 
WAT WAT WAT WAT WAT WAT WAT WAT WAT WAT WAT WAT WAT WAT WAT WAT WAT WAT WAT WAT 
WAT WAT WAT WAT WAT WAT WAT WAT WAT WAT WAT WAT WAT WAT WAT WAT WAT WAT WAT WAT 
WAT WAT WAT WAT WAT WAT WAT WAT WAT WAT WAT WAT WAT WAT WAT WAT WAT WAT WAT WAT 
WAT WAT WAT WAT WAT WAT WAT WAT WAT WAT WAT WAT WAT WAT WAT WAT WAT WAT WAT WAT 
WAT WAT WAT WAT WAT WAT WAT WAT WAT WAT WAT WAT WAT WAT WAT WAT WAT WAT WAT WAT 
WAT WAT WAT WAT WAT WAT WAT WAT WAT WAT WAT WAT WAT WAT WAT WAT WAT WAT WAT WAT 
WAT WAT WAT WAT WAT WAT WAT WAT WAT WAT WAT WAT WAT WAT WAT WAT WAT WAT WAT WAT 
WAT WAT WAT WAT WAT WAT WAT WAT WAT WAT WAT WAT WAT WAT WAT WAT WAT WAT WAT WAT 
WAT WAT WAT WAT WAT WAT WAT WAT WAT WAT WAT WAT WAT WAT WAT WAT WAT WAT WAT WAT 
WAT WAT WAT WAT WAT WAT WAT WAT WAT WAT WAT WAT WAT WAT WAT WAT WAT WAT WAT WAT 
WAT WAT WAT WAT WAT WAT WAT WAT WAT WAT WAT WAT WAT WAT WAT WAT WAT WAT WAT WAT 
WAT WAT WAT WAT WAT WAT WAT WAT WAT WAT WAT WAT WAT WAT WAT WAT WAT WAT WAT WAT 
WAT WAT WAT WAT WAT WAT WAT WAT WAT WAT WAT WAT WAT WAT WAT WAT WAT WAT WAT WAT 
WAT WAT WAT WAT WAT WAT WAT WAT WAT WAT WAT WAT WAT WAT WAT WAT WAT WAT WAT WAT 
WAT WAT WAT WAT WAT WAT WAT WAT WAT WAT WAT WAT WAT WAT WAT WAT WAT WAT WAT WAT 
WAT WAT WAT WAT WAT WAT WAT WAT WAT WAT WAT WAT WAT WAT WAT WAT WAT WAT WAT WAT 
WAT WAT WAT WAT WAT WAT WAT WAT WAT WAT WAT WAT WAT WAT WAT WAT WAT WAT WAT WAT 
WAT WAT WAT WAT WAT WAT WAT WAT WAT WAT WAT WAT WAT WAT WAT WAT WAT WAT WAT WAT 
WAT WAT WAT WAT WAT WAT WAT WAT WAT WAT WAT WAT WAT WAT WAT WAT WAT WAT WAT WAT 
WAT WAT WAT WAT WAT WAT WAT WAT WAT WAT WAT WAT WAT WAT WAT WAT WAT WAT WAT WAT 
WAT WAT WAT WAT WAT WAT WAT WAT WAT WAT WAT WAT WAT WAT WAT WAT WAT WAT WAT WAT 
WAT WAT WAT WAT WAT WAT WAT WAT WAT WAT WAT WAT WAT WAT WAT WAT WAT WAT WAT WAT 
WAT WAT WAT WAT WAT WAT WAT WAT WAT WAT WAT WAT WAT WAT WAT WAT WAT WAT WAT WAT 
WAT WAT WAT WAT WAT WAT WAT WAT WAT WAT WAT WAT WAT WAT WAT WAT WAT WAT WAT WAT 
WAT WAT WAT WAT WAT WAT WAT WAT WAT WAT WAT WAT WAT WAT WAT WAT WAT WAT WAT WAT 
WAT WAT WAT WAT WAT WAT WAT WAT WAT WAT WAT WAT WAT WAT WAT WAT WAT WAT WAT WAT 
WAT WAT WAT WAT WAT WAT WAT WAT WAT WAT WAT WAT WAT WAT WAT WAT WAT WAT WAT WAT 
WAT WAT WAT WAT WAT WAT WAT WAT WAT WAT WAT WAT WAT WAT WAT WAT WAT WAT WAT WAT 
WAT WAT WAT WAT WAT WAT WAT WAT WAT WAT WAT WAT WAT WAT WAT WAT WAT WAT WAT WAT 
WAT WAT WAT WAT WAT WAT WAT WAT WAT WAT WAT WAT WAT WAT WAT WAT WAT WAT WAT WAT 
WAT WAT WAT WAT WAT WAT WAT WAT WAT WAT WAT WAT WAT WAT WAT WAT WAT WAT WAT WAT 
WAT WAT WAT WAT WAT WAT WAT WAT WAT WAT WAT WAT WAT WAT WAT WAT WAT WAT WAT WAT 
WAT WAT WAT WAT WAT WAT WAT WAT WAT WAT WAT WAT WAT WAT WAT WAT WAT WAT WAT WAT 
WAT WAT WAT WAT WAT WAT WAT WAT WAT WAT WAT WAT WAT WAT WAT WAT WAT WAT WAT WAT 
WAT WAT WAT WAT WAT WAT WAT WAT WAT WAT WAT WAT WAT WAT WAT WAT WAT WAT WAT WAT 
WAT WAT WAT WAT WAT WAT WAT WAT WAT WAT WAT WAT WAT WAT WAT WAT WAT WAT WAT WAT 
WAT WAT WAT WAT WAT WAT WAT WAT WAT WAT WAT WAT WAT WAT WAT WAT WAT WAT WAT WAT 
WAT WAT WAT WAT WAT WAT WAT WAT WAT WAT WAT WAT WAT WAT WAT WAT WAT WAT WAT WAT 
WAT WAT WAT WAT WAT WAT WAT WAT WAT WAT WAT WAT WAT WAT WAT WAT WAT WAT WAT WAT 
WAT WAT WAT WAT WAT WAT WAT WAT WAT WAT WAT WAT WAT WAT WAT WAT WAT WAT WAT WAT 
WAT WAT WAT WAT WAT WAT WAT WAT WAT WAT WAT WAT WAT WAT WAT WAT WAT WAT WAT WAT 
WAT WAT WAT WAT WAT WAT WAT WAT WAT WAT WAT WAT WAT WAT WAT WAT WAT WAT WAT WAT 
WAT WAT WAT WAT WAT WAT WAT WAT WAT WAT WAT WAT WAT WAT WAT WAT WAT WAT WAT WAT 
WAT WAT WAT WAT WAT WAT WAT WAT WAT WAT WAT WAT WAT WAT WAT WAT WAT WAT WAT WAT 
WAT WAT WAT WAT WAT WAT WAT WAT WAT WAT WAT WAT WAT WAT WAT WAT WAT WAT WAT WAT 
WAT WAT WAT WAT WAT WAT WAT WAT WAT WAT WAT WAT WAT WAT WAT WAT WAT WAT WAT WAT 
WAT WAT WAT WAT WAT WAT WAT WAT WAT WAT WAT WAT WAT WAT WAT WAT WAT WAT WAT WAT 
WAT WAT WAT WAT WAT WAT WAT WAT WAT WAT WAT WAT WAT WAT WAT WAT WAT WAT WAT WAT 
WAT WAT WAT WAT WAT WAT WAT WAT WAT WAT WAT WAT WAT WAT WAT WAT WAT WAT WAT WAT 
WAT WAT WAT WAT WAT WAT WAT WAT WAT WAT WAT WAT 
%FLAG RESIDUE_POINTER                                                           
%FORMAT(10I8)                                                                   
       1       2       3       4       5       6       7       8       9      10
      11      39      43      47      51      55      59      63      67      71
      75      79      83      87      91      95      99     103     107     111
     115     119     123     127     131     135     139     143     147     151
     155     159     163     167     171     175     179     183     187     191
     195     199     203     207     211     215     219     223     227     231
     235     239     243     247     251     255     259     263     267     271
     275     279     283     287     291     295     299     303     307     311
     315     319     323     327     331     335     339     343     347     351
     355     359     363     367     371     375     379     383     387     391
     395     399     403     407     411     415     419     423     427     431
     435     439     443     447     451     455     459     463     467     471
     475     479     483     487     491     495     499     503     507     511
     515     519     523     527     531     535     539     543     547     551
     555     559     563     567     571     575     579     583     587     591
     595     599     603     607     611     615     619     623     627     631
     635     639     643     647     651     655     659     663     667     671
     675     679     683     687     691     695     699     703     707     711
     715     719     723     727     731     735     739     743     747     751
     755     759     763     767     771     775     779     783     787     791
     795     799     803     807     811     815     819     823     827     831
     835     839     843     847     851     855     859     863     867     871
     875     879     883     887     891     895     899     903     907     911
     915     919     923     927     931     935     939     943     947     951
     955     959     963     967     971     975     979     983     987     991
     995     999    1003    1007    1011    1015    1019    1023    1027    1031
    1035    1039    1043    1047    1051    1055    1059    1063    1067    1071
    1075    1079    1083    1087    1091    1095    1099    1103    1107    1111
    1115    1119    1123    1127    1131    1135    1139    1143    1147    1151
    1155    1159    1163    1167    1171    1175    1179    1183    1187    1191
    1195    1199    1203    1207    1211    1215    1219    1223    1227    1231
    1235    1239    1243    1247    1251    1255    1259    1263    1267    1271
    1275    1279    1283    1287    1291    1295    1299    1303    1307    1311
    1315    1319    1323    1327    1331    1335    1339    1343    1347    1351
    1355    1359    1363    1367    1371    1375    1379    1383    1387    1391
    1395    1399    1403    1407    1411    1415    1419    1423    1427    1431
    1435    1439    1443    1447    1451    1455    1459    1463    1467    1471
    1475    1479    1483    1487    1491    1495    1499    1503    1507    1511
    1515    1519    1523    1527    1531    1535    1539    1543    1547    1551
    1555    1559    1563    1567    1571    1575    1579    1583    1587    1591
    1595    1599    1603    1607    1611    1615    1619    1623    1627    1631
    1635    1639    1643    1647    1651    1655    1659    1663    1667    1671
    1675    1679    1683    1687    1691    1695    1699    1703    1707    1711
    1715    1719    1723    1727    1731    1735    1739    1743    1747    1751
    1755    1759    1763    1767    1771    1775    1779    1783    1787    1791
    1795    1799    1803    1807    1811    1815    1819    1823    1827    1831
    1835    1839    1843    1847    1851    1855    1859    1863    1867    1871
    1875    1879    1883    1887    1891    1895    1899    1903    1907    1911
    1915    1919    1923    1927    1931    1935    1939    1943    1947    1951
    1955    1959    1963    1967    1971    1975    1979    1983    1987    1991
    1995    1999    2003    2007    2011    2015    2019    2023    2027    2031
    2035    2039    2043    2047    2051    2055    2059    2063    2067    2071
    2075    2079    2083    2087    2091    2095    2099    2103    2107    2111
    2115    2119    2123    2127    2131    2135    2139    2143    2147    2151
    2155    2159    2163    2167    2171    2175    2179    2183    2187    2191
    2195    2199    2203    2207    2211    2215    2219    2223    2227    2231
    2235    2239    2243    2247    2251    2255    2259    2263    2267    2271
    2275    2279    2283    2287    2291    2295    2299    2303    2307    2311
    2315    2319    2323    2327    2331    2335    2339    2343    2347    2351
    2355    2359    2363    2367    2371    2375    2379    2383    2387    2391
    2395    2399    2403    2407    2411    2415    2419    2423    2427    2431
    2435    2439    2443    2447    2451    2455    2459    2463    2467    2471
    2475    2479    2483    2487    2491    2495    2499    2503    2507    2511
    2515    2519    2523    2527    2531    2535    2539    2543    2547    2551
    2555    2559    2563    2567    2571    2575    2579    2583    2587    2591
    2595    2599    2603    2607    2611    2615    2619    2623    2627    2631
    2635    2639    2643    2647    2651    2655    2659    2663    2667    2671
    2675    2679    2683    2687    2691    2695    2699    2703    2707    2711
    2715    2719    2723    2727    2731    2735    2739    2743    2747    2751
    2755    2759    2763    2767    2771    2775    2779    2783    2787    2791
    2795    2799    2803    2807    2811    2815    2819    2823    2827    2831
    2835    2839    2843    2847    2851    2855    2859    2863    2867    2871
    2875    2879    2883    2887    2891    2895    2899    2903    2907    2911
    2915    2919    2923    2927    2931    2935    2939    2943    2947    2951
    2955    2959    2963    2967    2971    2975    2979    2983    2987    2991
    2995    2999    3003    3007    3011    3015    3019    3023    3027    3031
    3035    3039    3043    3047    3051    3055    3059    3063    3067    3071
    3075    3079    3083    3087    3091    3095    3099    3103    3107    3111
    3115    3119    3123    3127    3131    3135    3139    3143    3147    3151
    3155    3159    3163    3167    3171    3175    3179    3183    3187    3191
    3195    3199    3203    3207    3211    3215    3219    3223    3227    3231
    3235    3239    3243    3247    3251    3255    3259    3263    3267    3271
    3275    3279    3283    3287    3291    3295    3299    3303    3307    3311
    3315    3319    3323    3327    3331    3335    3339    3343    3347    3351
    3355    3359    3363    3367    3371    3375    3379    3383    3387    3391
    3395    3399    3403    3407    3411    3415    3419    3423    3427    3431
    3435    3439    3443    3447    3451    3455    3459    3463    3467    3471
    3475    3479    3483    3487    3491    3495    3499    3503    3507    3511
    3515    3519    3523    3527    3531    3535    3539    3543    3547    3551
    3555    3559    3563    3567    3571    3575    3579    3583    3587    3591
    3595    3599    3603    3607    3611    3615    3619    3623    3627    3631
    3635    3639    3643    3647    3651    3655    3659    3663    3667    3671
    3675    3679    3683    3687    3691    3695    3699    3703    3707    3711
    3715    3719    3723    3727    3731    3735    3739    3743    3747    3751
    3755    3759    3763    3767    3771    3775    3779    3783    3787    3791
    3795    3799    3803    3807    3811    3815    3819    3823    3827    3831
    3835    3839    3843    3847    3851    3855    3859    3863    3867    3871
    3875    3879    3883    3887    3891    3895    3899    3903    3907    3911
    3915    3919    3923    3927    3931    3935    3939    3943    3947    3951
    3955    3959    3963    3967    3971    3975    3979    3983    3987    3991
    3995    3999    4003    4007    4011    4015    4019    4023    4027    4031
    4035    4039    4043    4047    4051    4055    4059    4063    4067    4071
    4075    4079    4083    4087    4091    4095    4099    4103    4107    4111
    4115    4119    4123    4127    4131    4135    4139    4143    4147    4151
    4155    4159    4163    4167    4171    4175    4179    4183    4187    4191
    4195    4199    4203    4207    4211    4215    4219    4223    4227    4231
    4235    4239    4243    4247    4251    4255    4259    4263    4267    4271
    4275    4279    4283    4287    4291    4295    4299    4303    4307    4311
    4315    4319    4323    4327    4331    4335    4339    4343    4347    4351
    4355    4359    4363    4367    4371    4375    4379    4383    4387    4391
    4395    4399    4403    4407    4411    4415    4419    4423    4427    4431
    4435    4439    4443    4447    4451    4455    4459    4463    4467    4471
    4475    4479    4483    4487    4491    4495    4499    4503    4507    4511
    4515    4519    4523    4527    4531    4535    4539    4543    4547    4551
    4555    4559    4563    4567    4571    4575    4579    4583    4587    4591
    4595    4599    4603    4607    4611    4615    4619    4623    4627    4631
    4635    4639    4643    4647    4651    4655    4659    4663    4667    4671
    4675    4679    4683    4687    4691    4695    4699    4703    4707    4711
    4715    4719    4723    4727    4731    4735    4739    4743    4747    4751
    4755    4759    4763    4767    4771    4775    4779    4783    4787    4791
    4795    4799    4803    4807    4811    4815    4819    4823    4827    4831
    4835    4839    4843    4847    4851    4855    4859    4863    4867    4871
    4875    4879    4883    4887    4891    4895    4899    4903    4907    4911
    4915    4919    4923    4927    4931    4935    4939    4943    4947    4951
    4955    4959    4963    4967    4971    4975    4979    4983    4987    4991
    4995    4999    5003    5007    5011    5015    5019    5023    5027    5031
    5035    5039    5043    5047    5051    5055    5059    5063    5067    5071
    5075    5079    5083    5087    5091    5095    5099    5103    5107    5111
    5115    5119    5123    5127    5131    5135    5139    5143    5147    5151
    5155    5159    5163    5167    5171    5175    5179    5183    5187    5191
    5195    5199    5203    5207    5211    5215    5219    5223    5227    5231
    5235    5239    5243    5247    5251    5255    5259    5263    5267    5271
    5275    5279    5283    5287    5291    5295    5299    5303    5307    5311
    5315    5319    5323    5327    5331    5335    5339    5343    5347    5351
    5355    5359    5363    5367    5371    5375    5379    5383    5387    5391
    5395    5399    5403    5407    5411    5415    5419    5423    5427    5431
    5435    5439    5443    5447    5451    5455    5459    5463    5467    5471
    5475    5479    5483    5487    5491    5495    5499    5503    5507    5511
    5515    5519    5523    5527    5531    5535    5539    5543    5547    5551
    5555    5559    5563    5567    5571    5575    5579    5583    5587    5591
    5595    5599    5603    5607    5611    5615    5619    5623    5627    5631
    5635    5639    5643    5647    5651    5655    5659    5663    5667    5671
    5675    5679    5683    5687    5691    5695    5699    5703    5707    5711
    5715    5719    5723    5727    5731    5735    5739    5743    5747    5751
    5755    5759    5763    5767    5771    5775    5779    5783    5787    5791
    5795    5799    5803    5807    5811    5815    5819    5823    5827    5831
    5835    5839    5843    5847    5851    5855    5859    5863    5867    5871
    5875    5879    5883    5887    5891    5895    5899    5903    5907    5911
    5915    5919    5923    5927    5931    5935    5939    5943    5947    5951
    5955    5959    5963    5967    5971    5975    5979    5983    5987    5991
    5995    5999    6003    6007    6011    6015    6019    6023    6027    6031
    6035    6039    6043    6047    6051    6055    6059    6063    6067    6071
    6075    6079    6083    6087    6091    6095    6099    6103    6107    6111
    6115    6119    6123    6127    6131    6135    6139    6143    6147    6151
    6155    6159    6163    6167    6171    6175    6179    6183    6187    6191
    6195    6199    6203    6207    6211    6215    6219    6223    6227    6231
    6235    6239    6243    6247    6251    6255    6259    6263    6267    6271
    6275    6279    6283    6287    6291    6295    6299    6303    6307    6311
    6315    6319    6323    6327    6331    6335    6339    6343    6347    6351
    6355    6359    6363    6367    6371    6375    6379    6383    6387    6391
    6395    6399    6403    6407    6411    6415    6419    6423    6427    6431
    6435    6439    6443    6447    6451    6455    6459    6463    6467    6471
    6475    6479    6483    6487    6491    6495    6499    6503    6507    6511
    6515    6519    6523    6527    6531    6535    6539    6543    6547    6551
    6555    6559    6563    6567    6571    6575    6579    6583    6587    6591
    6595    6599    6603    6607    6611    6615    6619    6623    6627    6631
    6635    6639    6643    6647    6651    6655    6659    6663    6667    6671
    6675    6679    6683    6687    6691    6695    6699    6703    6707    6711
    6715    6719    6723    6727    6731    6735    6739    6743    6747    6751
    6755    6759    6763    6767    6771    6775    6779    6783    6787    6791
    6795    6799    6803    6807    6811    6815    6819    6823    6827    6831
    6835    6839    6843    6847    6851    6855    6859    6863    6867    6871
    6875    6879    6883    6887    6891    6895    6899    6903    6907    6911
    6915    6919    6923    6927    6931    6935    6939    6943    6947    6951
    6955    6959    6963    6967    6971    6975    6979    6983    6987    6991
    6995    6999    7003    7007    7011    7015    7019    7023    7027    7031
    7035    7039    7043    7047    7051    7055    7059    7063    7067    7071
    7075    7079    7083    7087    7091    7095    7099    7103    7107    7111
    7115    7119    7123    7127    7131    7135    7139    7143    7147    7151
    7155    7159    7163    7167    7171    7175    7179    7183    7187    7191
    7195    7199    7203    7207    7211    7215    7219    7223    7227    7231
    7235    7239    7243    7247    7251    7255    7259    7263    7267    7271
    7275    7279    7283    7287    7291    7295    7299    7303    7307    7311
    7315    7319    7323    7327    7331    7335    7339    7343    7347    7351
    7355    7359    7363    7367    7371    7375    7379    7383    7387    7391
    7395    7399    7403    7407    7411    7415    7419    7423    7427    7431
    7435    7439    7443    7447    7451    7455    7459    7463    7467    7471
    7475    7479    7483    7487    7491    7495    7499    7503    7507    7511
    7515    7519    7523    7527    7531    7535    7539    7543    7547    7551
    7555    7559    7563    7567    7571    7575    7579    7583    7587    7591
    7595    7599    7603    7607    7611    7615    7619    7623    7627    7631
    7635    7639    7643    7647    7651    7655    7659    7663    7667    7671
    7675    7679    7683    7687    7691    7695    7699    7703    7707    7711
    7715    7719    7723    7727    7731    7735    7739    7743    7747    7751
    7755    7759    7763    7767    7771    7775    7779    7783    7787    7791
    7795    7799    7803    7807    7811    7815    7819    7823    7827    7831
    7835    7839    7843    7847    7851    7855    7859    7863    7867    7871
    7875    7879    7883    7887    7891    7895    7899    7903    7907    7911
    7915    7919    7923    7927    7931    7935    7939    7943    7947    7951
    7955    7959    7963    7967    7971    7975    7979    7983    7987    7991
    7995    7999    8003    8007    8011    8015    8019    8023    8027    8031
    8035    8039    8043    8047    8051    8055    8059    8063    8067    8071
    8075    8079    8083    8087    8091    8095    8099    8103    8107    8111
    8115    8119    8123    8127    8131    8135    8139    8143    8147    8151
    8155    8159    8163    8167    8171    8175    8179    8183    8187    8191
    8195    8199    8203    8207    8211    8215    8219    8223    8227    8231
    8235    8239    8243    8247    8251    8255    8259    8263    8267    8271
    8275    8279    8283    8287    8291    8295    8299    8303    8307    8311
    8315    8319    8323    8327    8331    8335    8339    8343    8347    8351
    8355    8359    8363    8367    8371    8375    8379    8383    8387    8391
    8395    8399    8403    8407    8411    8415    8419    8423    8427    8431
    8435    8439    8443    8447    8451    8455    8459    8463    8467    8471
    8475    8479    8483    8487    8491    8495    8499    8503    8507    8511
    8515    8519    8523    8527    8531    8535    8539    8543    8547    8551
    8555    8559    8563    8567    8571    8575    8579    8583    8587    8591
    8595    8599    8603    8607    8611    8615    8619    8623    8627    8631
    8635    8639    8643    8647    8651    8655    8659    8663    8667    8671
    8675    8679    8683    8687    8691    8695    8699    8703    8707    8711
    8715    8719    8723    8727    8731    8735    8739    8743    8747    8751
    8755    8759
%FLAG BOND_FORCE_CONSTANT                                                       
%FORMAT(5E16.8)                                                                 
  5.53000000E+02  5.53000000E+02  5.53000000E+02  4.81770000E+02  3.32450000E+02
  3.66810000E+02  4.17790000E+02  3.56030000E+02  3.86240000E+02  3.45930000E+02
  3.60690000E+02  3.54250000E+02  3.47100000E+02  5.29500000E+02  2.52800000E+02
  3.63500000E+02  4.19720000E+02  3.53800000E+02  5.27300000E+02  3.56200000E+02
  2.81780000E+02  5.90600000E+02
%FLAG BOND_EQUIL_VALUE                                                          
%FORMAT(5E16.8)                                                                 
  1.51360000E+00  1.25000000E-01  9.57200000E-01  1.00950000E+00  1.38300000E+00
  1.08210000E+00  1.31710000E+00  1.36290000E+00  1.37300000E+00  1.37130000E+00
  1.08600000E+00  1.39860000E+00  1.38600000E+00  1.01200000E+00  1.40200000E+00
  1.37300000E+00  1.31580000E+00  1.38100000E+00  1.01300000E+00  1.37900000E+00
  1.46870000E+00  1.21900000E+00
%FLAG ANGLE_FORCE_CONSTANT                                                      
%FORMAT(5E16.8)                                                                 
  4.79400000E+01  5.54300000E+01  7.65100000E+01  4.88900000E+01  7.19900000E+01
  8.60800000E+01  6.97000000E+01  8.27900000E+01  7.14500000E+01  7.25300000E+01
  4.49000000E+01  6.36700000E+01  4.88000000E+01  6.19000000E+01  8.62000000E+01
  1.11700000E+02  8.55000000E+01  4.83000000E+01  8.55000000E+01  4.93000000E+01
  8.73500000E+01  8.71000000E+01  1.10900000E+02  1.10300000E+02  6.66000000E+01
  4.87000000E+01  6.22000000E+01  6.57200000E+01  1.13800000E+02  7.83600000E+01
%FLAG ANGLE_EQUIL_VALUE                                                         
%FORMAT(5E16.8)                                                                 
  2.10888224E+00  2.18585129E+00  1.97257197E+00  2.18672396E+00  1.90223517E+00
  1.90502770E+00  2.05931487E+00  1.93557097E+00  1.94743921E+00  2.11411823E+00
  2.09230160E+00  2.09474507E+00  2.02580453E+00  1.93487284E+00  2.11097664E+00
  2.10574065E+00  2.00433697E+00  2.08148056E+00  2.00433697E+00  2.01812508E+00
  1.83905422E+00  1.96698691E+00  2.04098890E+00  2.14675590E+00  2.15146829E+00
  2.05163542E+00  2.11743436E+00  2.15007203E+00  2.14762857E+00  2.16525640E+00
%FLAG DIHEDRAL_FORCE_CONSTANT                                                   
%FORMAT(5E16.8)                                                                 
  1.70000000E+00  3.62500000E+00  1.80000000E+00  4.00000000E+00  2.50000000E+00
  4.75000000E+00  1.65000000E+00  1.05000000E+00  2.87500000E+00  2.00000000E+00
  1.10000000E+00  1.05000000E+01
%FLAG DIHEDRAL_PERIODICITY                                                      
%FORMAT(5E16.8)                                                                 
  2.00000000E+00  2.00000000E+00  3.00000000E+00  2.00000000E+00  2.00000000E+00
  2.00000000E+00  2.00000000E+00  2.00000000E+00  2.00000000E+00  1.00000000E+00
  2.00000000E+00  2.00000000E+00
%FLAG DIHEDRAL_PHASE                                                            
%FORMAT(5E16.8)                                                                 
  3.14159400E+00  3.14159400E+00  3.14159400E+00  3.14159400E+00  3.14159400E+00
  3.14159400E+00  3.14159400E+00  3.14159400E+00  3.14159400E+00  0.00000000E+00
  3.14159400E+00  3.14159400E+00
%FLAG SCEE_SCALE_FACTOR                                                         
%FORMAT(5E16.8)                                                                 
  1.20000000E+00  1.20000000E+00  1.20000000E+00  1.20000000E+00  1.20000000E+00
  1.20000000E+00  1.20000000E+00  1.20000000E+00  1.20000000E+00  1.20000000E+00
  0.00000000E+00  0.00000000E+00
%FLAG SCNB_SCALE_FACTOR                                                         
%FORMAT(5E16.8)                                                                 
  2.00000000E+00  2.00000000E+00  2.00000000E+00  2.00000000E+00  2.00000000E+00
  2.00000000E+00  2.00000000E+00  2.00000000E+00  2.00000000E+00  2.00000000E+00
  0.00000000E+00  0.00000000E+00
%FLAG SOLTY                                                                     
%FORMAT(5E16.8)                                                                 
  0.00000000E+00  0.00000000E+00  0.00000000E+00  0.00000000E+00  0.00000000E+00
  0.00000000E+00  0.00000000E+00  0.00000000E+00  0.00000000E+00  0.00000000E+00
  0.00000000E+00  0.00000000E+00  0.00000000E+00  0.00000000E+00  0.00000000E+00
  0.00000000E+00  0.00000000E+00  0.00000000E+00
%FLAG LENNARD_JONES_ACOEF                                                       
%FORMAT(5E16.8)                                                                 
  7.95580953E+03  7.12925476E+05  9.33304478E+06  6.45887018E+04  2.63333256E+06
  3.76435470E+05  9.64632940E+04  3.21466829E+06  5.17507491E+05  6.96551276E+05
  9.52256395E+04  3.27992774E+06  5.17814271E+05  6.99381362E+05  7.01825028E+05
  1.11444683E+05  3.81307460E+06  6.04358274E+05  8.15700858E+05  8.18644626E+05
  9.54886922E+05  1.09323807E+05  3.46752909E+06  5.74782316E+05  7.69642101E+05
  7.73425391E+05  9.01905150E+05  8.49322032E+05  1.08967343E+05  3.93612430E+06
  6.04208667E+05  8.20152428E+05  8.22346035E+05  9.59384716E+05  9.08092643E+05
  9.62429652E+05  6.46877639E+01  2.40945743E+04  9.87857350E+02  1.71458823E+03
  1.65195713E+03  1.94284817E+03  2.01475241E+03  1.82491629E+03  1.34728399E-01
  7.79888135E+03  4.54134939E+05  5.27277400E+04  7.52549148E+04  7.48403283E+04
  8.74566229E+04  8.43518904E+04  8.65595848E+04  9.04434904E+01  6.90855956E+03
  4.95804190E+03  3.40883084E+05  3.59538577E+04  5.22195041E+04  5.17840911E+04
  6.05484928E+04  5.87815925E+04  5.96470418E+04  5.02830284E+01  4.56536476E+03
  2.97255425E+03  8.86723790E+04  3.30472238E+06  4.98028858E+05  6.78244843E+05
  6.79694051E+05  7.93046620E+05  7.51572712E+05  7.94862276E+05  1.45086460E+03
  7.09351137E+04  4.87482031E+04  6.56136207E+05  0.00000000E+00  0.00000000E+00
  0.00000000E+00  0.00000000E+00  0.00000000E+00  0.00000000E+00  0.00000000E+00
  0.00000000E+00  0.00000000E+00  0.00000000E+00  0.00000000E+00  0.00000000E+00
  0.00000000E+00  0.00000000E+00  0.00000000E+00  0.00000000E+00  0.00000000E+00
  0.00000000E+00  0.00000000E+00  0.00000000E+00  0.00000000E+00  0.00000000E+00
  0.00000000E+00  0.00000000E+00  0.00000000E+00  0.00000000E+00  0.00000000E+00
%FLAG LENNARD_JONES_BCOEF                                                       
%FORMAT(5E16.8)                                                                 
  7.32135689E+01  3.55508807E+02  6.59809978E+02  2.01385896E+02  6.59602869E+02
  4.69350655E+02  2.23105344E+02  6.60656814E+02  4.98871431E+02  5.24668528E+02
  2.31437466E+02  6.96735215E+02  5.21008860E+02  5.48900066E+02  5.74088001E+02
  2.68164626E+02  8.04615458E+02  6.02865504E+02  6.34916791E+02  6.64089859E+02
  7.68192761E+02  2.34635906E+02  6.77838234E+02  5.19385932E+02  5.44830041E+02
  5.70234696E+02  6.59538202E+02  5.65406768E+02  2.84316332E+02  8.76530306E+02
  6.46321327E+02  6.82622272E+02  7.13654906E+02  8.25605255E+02  7.09588248E+02
  8.86629877E+02  3.25874788E+00  3.22610300E+01  1.22938581E+01  1.46824710E+01
  1.50468782E+01  1.74775900E+01  1.57231024E+01  1.81620725E+01  7.34107347E-02
  4.03053148E+01  1.57767494E+02  1.01173582E+02  1.09570372E+02  1.14083104E+02
  1.32088478E+02  1.14599119E+02  1.40899023E+02  2.14252117E+00  2.10929191E+01
  3.21366985E+01  1.36687183E+02  8.35449674E+01  9.12729468E+01  9.48968218E+01
  1.09905709E+02  9.56653235E+01  1.16962018E+02  1.59752321E+00  1.71467049E+01
  1.38359132E+01  2.42333872E+02  7.58868174E+02  5.54432373E+02  5.86533377E+02
  6.13033212E+02  7.09237557E+02  6.09948479E+02  7.61325055E+02  1.53011364E+01
  1.20516733E+02  9.99070234E+01  6.53563058E+02  0.00000000E+00  0.00000000E+00
  0.00000000E+00  0.00000000E+00  0.00000000E+00  0.00000000E+00  0.00000000E+00
  0.00000000E+00  0.00000000E+00  0.00000000E+00  0.00000000E+00  0.00000000E+00
  0.00000000E+00  0.00000000E+00  0.00000000E+00  0.00000000E+00  0.00000000E+00
  0.00000000E+00  0.00000000E+00  0.00000000E+00  0.00000000E+00  0.00000000E+00
  0.00000000E+00  0.00000000E+00  0.00000000E+00  0.00000000E+00  0.00000000E+00
%FLAG BONDS_INC_HYDROGEN                                                        
%FORMAT(10I8)                                                                   
     117     120       1     114     117       3     114     120       3     129
     132       1     126     129       3     126     132       3     141     144
       1     138     141       3     138     144       3     153     156       1
     150     153       3     150     156       3     165     168       1     162
     165       3     162     168       3     177     180       1     174     177
       3     174     180       3     189     192       1     186     189       3
     186     192       3     201     204       1     198     201       3     198
     204       3     213     216       1     210     213       3     210     216
       3     225     228       1     222     225       3     222     228       3
     237     240       1     234     237       3     234     240       3     249
     252       1     246     249       3     246     252       3     261     264
       1     258     261       3     258     264       3     273     276       1
     270     273       3     270     276       3     285     288       1     282
     285       3     282     288       3     297     300       1     294     297
       3     294     300       3     309     312       1     306     309       3
     306     312       3     321     324       1     318     321       3     318
     324       3     333     336       1     330     333       3     330     336
       3     345     348       1     342     345       3     342     348       3
     357     360       1     354     357       3     354     360       3     369
     372       1     366     369       3     366     372       3     381     384
       1     378     381       3     378     384       3     393     396       1
     390     393       3     390     396       3     405     408       1     402
     405       3     402     408       3     417     420       1     414     417
       3     414     420       3     429     432       1     426     429       3
     426     432       3     441     444       1     438     441       3     438
     444       3     453     456       1     450     453       3     450     456
       3     465     468       1     462     465       3     462     468       3
     477     480       1     474     477       3     474     480       3     489
     492       1     486     489       3     486     492       3     501     504
       1     498     501       3     498     504       3     513     516       1
     510     513       3     510     516       3     525     528       1     522
     525       3     522     528       3     537     540       1     534     537
       3     534     540       3     549     552       1     546     549       3
     546     552       3     561     564       1     558     561       3     558
     564       3     573     576       1     570     573       3     570     576
       3     585     588       1     582     585       3     582     588       3
     597     600       1     594     597       3     594     600       3     609
     612       1     606     609       3     606     612       3     621     624
       1     618     621       3     618     624       3     633     636       1
     630     633       3     630     636       3     645     648       1     642
     645       3     642     648       3     657     660       1     654     657
       3     654     660       3     669     672       1     666     669       3
     666     672       3     681     684       1     678     681       3     678
     684       3     693     696       1     690     693       3     690     696
       3     705     708       1     702     705       3     702     708       3
     717     720       1     714     717       3     714     720       3     729
     732       1     726     729       3     726     732       3     741     744
       1     738     741       3     738     744       3     753     756       1
     750     753       3     750     756       3     765     768       1     762
     765       3     762     768       3     777     780       1     774     777
       3     774     780       3     789     792       1     786     789       3
     786     792       3     801     804       1     798     801       3     798
     804       3     813     816       1     810     813       3     810     816
       3     825     828       1     822     825       3     822     828       3
     837     840       1     834     837       3     834     840       3     849
     852       1     846     849       3     846     852       3     861     864
       1     858     861       3     858     864       3     873     876       1
     870     873       3     870     876       3     885     888       1     882
     885       3     882     888       3     897     900       1     894     897
       3     894     900       3     909     912       1     906     909       3
     906     912       3     921     924       1     918     921       3     918
     924       3     933     936       1     930     933       3     930     936
       3     945     948       1     942     945       3     942     948       3
     957     960       1     954     957       3     954     960       3     969
     972       1     966     969       3     966     972       3     981     984
       1     978     981       3     978     984       3     993     996       1
     990     993       3     990     996       3    1005    1008       1    1002
    1005       3    1002    1008       3    1017    1020       1    1014    1017
       3    1014    1020       3    1029    1032       1    1026    1029       3
    1026    1032       3    1041    1044       1    1038    1041       3    1038
    1044       3    1053    1056       1    1050    1053       3    1050    1056
       3    1065    1068       1    1062    1065       3    1062    1068       3
    1077    1080       1    1074    1077       3    1074    1080       3    1089
    1092       1    1086    1089       3    1086    1092       3    1101    1104
       1    1098    1101       3    1098    1104       3    1113    1116       1
    1110    1113       3    1110    1116       3    1125    1128       1    1122
    1125       3    1122    1128       3    1137    1140       1    1134    1137
       3    1134    1140       3    1149    1152       1    1146    1149       3
    1146    1152       3    1161    1164       1    1158    1161       3    1158
    1164       3    1173    1176       1    1170    1173       3    1170    1176
       3    1185    1188       1    1182    1185       3    1182    1188       3
    1197    1200       1    1194    1197       3    1194    1200       3    1209
    1212       1    1206    1209       3    1206    1212       3    1221    1224
       1    1218    1221       3    1218    1224       3    1233    1236       1
    1230    1233       3    1230    1236       3    1245    1248       1    1242
    1245       3    1242    1248       3    1257    1260       1    1254    1257
       3    1254    1260       3    1269    1272       1    1266    1269       3
    1266    1272       3    1281    1284       1    1278    1281       3    1278
    1284       3    1293    1296       1    1290    1293       3    1290    1296
       3    1305    1308       1    1302    1305       3    1302    1308       3
    1317    1320       1    1314    1317       3    1314    1320       3    1329
    1332       1    1326    1329       3    1326    1332       3    1341    1344
       1    1338    1341       3    1338    1344       3    1353    1356       1
    1350    1353       3    1350    1356       3    1365    1368       1    1362
    1365       3    1362    1368       3    1377    1380       1    1374    1377
       3    1374    1380       3    1389    1392       1    1386    1389       3
    1386    1392       3    1401    1404       1    1398    1401       3    1398
    1404       3    1413    1416       1    1410    1413       3    1410    1416
       3    1425    1428       1    1422    1425       3    1422    1428       3
    1437    1440       1    1434    1437       3    1434    1440       3    1449
    1452       1    1446    1449       3    1446    1452       3    1461    1464
       1    1458    1461       3    1458    1464       3    1473    1476       1
    1470    1473       3    1470    1476       3    1485    1488       1    1482
    1485       3    1482    1488       3    1497    1500       1    1494    1497
       3    1494    1500       3    1509    1512       1    1506    1509       3
    1506    1512       3    1521    1524       1    1518    1521       3    1518
    1524       3    1533    1536       1    1530    1533       3    1530    1536
       3    1545    1548       1    1542    1545       3    1542    1548       3
    1557    1560       1    1554    1557       3    1554    1560       3    1569
    1572       1    1566    1569       3    1566    1572       3    1581    1584
       1    1578    1581       3    1578    1584       3    1593    1596       1
    1590    1593       3    1590    1596       3    1605    1608       1    1602
    1605       3    1602    1608       3    1617    1620       1    1614    1617
       3    1614    1620       3    1629    1632       1    1626    1629       3
    1626    1632       3    1641    1644       1    1638    1641       3    1638
    1644       3    1653    1656       1    1650    1653       3    1650    1656
       3    1665    1668       1    1662    1665       3    1662    1668       3
    1677    1680       1    1674    1677       3    1674    1680       3    1689
    1692       1    1686    1689       3    1686    1692       3    1701    1704
       1    1698    1701       3    1698    1704       3    1713    1716       1
    1710    1713       3    1710    1716       3    1725    1728       1    1722
    1725       3    1722    1728       3    1737    1740       1    1734    1737
       3    1734    1740       3    1749    1752       1    1746    1749       3
    1746    1752       3    1761    1764       1    1758    1761       3    1758
    1764       3    1773    1776       1    1770    1773       3    1770    1776
       3    1785    1788       1    1782    1785       3    1782    1788       3
    1797    1800       1    1794    1797       3    1794    1800       3    1809
    1812       1    1806    1809       3    1806    1812       3    1821    1824
       1    1818    1821       3    1818    1824       3    1833    1836       1
    1830    1833       3    1830    1836       3    1845    1848       1    1842
    1845       3    1842    1848       3    1857    1860       1    1854    1857
       3    1854    1860       3    1869    1872       1    1866    1869       3
    1866    1872       3    1881    1884       1    1878    1881       3    1878
    1884       3    1893    1896       1    1890    1893       3    1890    1896
       3    1905    1908       1    1902    1905       3    1902    1908       3
    1917    1920       1    1914    1917       3    1914    1920       3    1929
    1932       1    1926    1929       3    1926    1932       3    1941    1944
       1    1938    1941       3    1938    1944       3    1953    1956       1
    1950    1953       3    1950    1956       3    1965    1968       1    1962
    1965       3    1962    1968       3    1977    1980       1    1974    1977
       3    1974    1980       3    1989    1992       1    1986    1989       3
    1986    1992       3    2001    2004       1    1998    2001       3    1998
    2004       3    2013    2016       1    2010    2013       3    2010    2016
       3    2025    2028       1    2022    2025       3    2022    2028       3
    2037    2040       1    2034    2037       3    2034    2040       3    2049
    2052       1    2046    2049       3    2046    2052       3    2061    2064
       1    2058    2061       3    2058    2064       3    2073    2076       1
    2070    2073       3    2070    2076       3    2085    2088       1    2082
    2085       3    2082    2088       3    2097    2100       1    2094    2097
       3    2094    2100       3    2109    2112       1    2106    2109       3
    2106    2112       3    2121    2124       1    2118    2121       3    2118
    2124       3    2133    2136       1    2130    2133       3    2130    2136
       3    2145    2148       1    2142    2145       3    2142    2148       3
    2157    2160       1    2154    2157       3    2154    2160       3    2169
    2172       1    2166    2169       3    2166    2172       3    2181    2184
       1    2178    2181       3    2178    2184       3    2193    2196       1
    2190    2193       3    2190    2196       3    2205    2208       1    2202
    2205       3    2202    2208       3    2217    2220       1    2214    2217
       3    2214    2220       3    2229    2232       1    2226    2229       3
    2226    2232       3    2241    2244       1    2238    2241       3    2238
    2244       3    2253    2256       1    2250    2253       3    2250    2256
       3    2265    2268       1    2262    2265       3    2262    2268       3
    2277    2280       1    2274    2277       3    2274    2280       3    2289
    2292       1    2286    2289       3    2286    2292       3    2301    2304
       1    2298    2301       3    2298    2304       3    2313    2316       1
    2310    2313       3    2310    2316       3    2325    2328       1    2322
    2325       3    2322    2328       3    2337    2340       1    2334    2337
       3    2334    2340       3    2349    2352       1    2346    2349       3
    2346    2352       3    2361    2364       1    2358    2361       3    2358
    2364       3    2373    2376       1    2370    2373       3    2370    2376
       3    2385    2388       1    2382    2385       3    2382    2388       3
    2397    2400       1    2394    2397       3    2394    2400       3    2409
    2412       1    2406    2409       3    2406    2412       3    2421    2424
       1    2418    2421       3    2418    2424       3    2433    2436       1
    2430    2433       3    2430    2436       3    2445    2448       1    2442
    2445       3    2442    2448       3    2457    2460       1    2454    2457
       3    2454    2460       3    2469    2472       1    2466    2469       3
    2466    2472       3    2481    2484       1    2478    2481       3    2478
    2484       3    2493    2496       1    2490    2493       3    2490    2496
       3    2505    2508       1    2502    2505       3    2502    2508       3
    2517    2520       1    2514    2517       3    2514    2520       3    2529
    2532       1    2526    2529       3    2526    2532       3    2541    2544
       1    2538    2541       3    2538    2544       3    2553    2556       1
    2550    2553       3    2550    2556       3    2565    2568       1    2562
    2565       3    2562    2568       3    2577    2580       1    2574    2577
       3    2574    2580       3    2589    2592       1    2586    2589       3
    2586    2592       3    2601    2604       1    2598    2601       3    2598
    2604       3    2613    2616       1    2610    2613       3    2610    2616
       3    2625    2628       1    2622    2625       3    2622    2628       3
    2637    2640       1    2634    2637       3    2634    2640       3    2649
    2652       1    2646    2649       3    2646    2652       3    2661    2664
       1    2658    2661       3    2658    2664       3    2673    2676       1
    2670    2673       3    2670    2676       3    2685    2688       1    2682
    2685       3    2682    2688       3    2697    2700       1    2694    2697
       3    2694    2700       3    2709    2712       1    2706    2709       3
    2706    2712       3    2721    2724       1    2718    2721       3    2718
    2724       3    2733    2736       1    2730    2733       3    2730    2736
       3    2745    2748       1    2742    2745       3    2742    2748       3
    2757    2760       1    2754    2757       3    2754    2760       3    2769
    2772       1    2766    2769       3    2766    2772       3    2781    2784
       1    2778    2781       3    2778    2784       3    2793    2796       1
    2790    2793       3    2790    2796       3    2805    2808       1    2802
    2805       3    2802    2808       3    2817    2820       1    2814    2817
       3    2814    2820       3    2829    2832       1    2826    2829       3
    2826    2832       3    2841    2844       1    2838    2841       3    2838
    2844       3    2853    2856       1    2850    2853       3    2850    2856
       3    2865    2868       1    2862    2865       3    2862    2868       3
    2877    2880       1    2874    2877       3    2874    2880       3    2889
    2892       1    2886    2889       3    2886    2892       3    2901    2904
       1    2898    2901       3    2898    2904       3    2913    2916       1
    2910    2913       3    2910    2916       3    2925    2928       1    2922
    2925       3    2922    2928       3    2937    2940       1    2934    2937
       3    2934    2940       3    2949    2952       1    2946    2949       3
    2946    2952       3    2961    2964       1    2958    2961       3    2958
    2964       3    2973    2976       1    2970    2973       3    2970    2976
       3    2985    2988       1    2982    2985       3    2982    2988       3
    2997    3000       1    2994    2997       3    2994    3000       3    3009
    3012       1    3006    3009       3    3006    3012       3    3021    3024
       1    3018    3021       3    3018    3024       3    3033    3036       1
    3030    3033       3    3030    3036       3    3045    3048       1    3042
    3045       3    3042    3048       3    3057    3060       1    3054    3057
       3    3054    3060       3    3069    3072       1    3066    3069       3
    3066    3072       3    3081    3084       1    3078    3081       3    3078
    3084       3    3093    3096       1    3090    3093       3    3090    3096
       3    3105    3108       1    3102    3105       3    3102    3108       3
    3117    3120       1    3114    3117       3    3114    3120       3    3129
    3132       1    3126    3129       3    3126    3132       3    3141    3144
       1    3138    3141       3    3138    3144       3    3153    3156       1
    3150    3153       3    3150    3156       3    3165    3168       1    3162
    3165       3    3162    3168       3    3177    3180       1    3174    3177
       3    3174    3180       3    3189    3192       1    3186    3189       3
    3186    3192       3    3201    3204       1    3198    3201       3    3198
    3204       3    3213    3216       1    3210    3213       3    3210    3216
       3    3225    3228       1    3222    3225       3    3222    3228       3
    3237    3240       1    3234    3237       3    3234    3240       3    3249
    3252       1    3246    3249       3    3246    3252       3    3261    3264
       1    3258    3261       3    3258    3264       3    3273    3276       1
    3270    3273       3    3270    3276       3    3285    3288       1    3282
    3285       3    3282    3288       3    3297    3300       1    3294    3297
       3    3294    3300       3    3309    3312       1    3306    3309       3
    3306    3312       3    3321    3324       1    3318    3321       3    3318
    3324       3    3333    3336       1    3330    3333       3    3330    3336
       3    3345    3348       1    3342    3345       3    3342    3348       3
    3357    3360       1    3354    3357       3    3354    3360       3    3369
    3372       1    3366    3369       3    3366    3372       3    3381    3384
       1    3378    3381       3    3378    3384       3    3393    3396       1
    3390    3393       3    3390    3396       3    3405    3408       1    3402
    3405       3    3402    3408       3    3417    3420       1    3414    3417
       3    3414    3420       3    3429    3432       1    3426    3429       3
    3426    3432       3    3441    3444       1    3438    3441       3    3438
    3444       3    3453    3456       1    3450    3453       3    3450    3456
       3    3465    3468       1    3462    3465       3    3462    3468       3
    3477    3480       1    3474    3477       3    3474    3480       3    3489
    3492       1    3486    3489       3    3486    3492       3    3501    3504
       1    3498    3501       3    3498    3504       3    3513    3516       1
    3510    3513       3    3510    3516       3    3525    3528       1    3522
    3525       3    3522    3528       3    3537    3540       1    3534    3537
       3    3534    3540       3    3549    3552       1    3546    3549       3
    3546    3552       3    3561    3564       1    3558    3561       3    3558
    3564       3    3573    3576       1    3570    3573       3    3570    3576
       3    3585    3588       1    3582    3585       3    3582    3588       3
    3597    3600       1    3594    3597       3    3594    3600       3    3609
    3612       1    3606    3609       3    3606    3612       3    3621    3624
       1    3618    3621       3    3618    3624       3    3633    3636       1
    3630    3633       3    3630    3636       3    3645    3648       1    3642
    3645       3    3642    3648       3    3657    3660       1    3654    3657
       3    3654    3660       3    3669    3672       1    3666    3669       3
    3666    3672       3    3681    3684       1    3678    3681       3    3678
    3684       3    3693    3696       1    3690    3693       3    3690    3696
       3    3705    3708       1    3702    3705       3    3702    3708       3
    3717    3720       1    3714    3717       3    3714    3720       3    3729
    3732       1    3726    3729       3    3726    3732       3    3741    3744
       1    3738    3741       3    3738    3744       3    3753    3756       1
    3750    3753       3    3750    3756       3    3765    3768       1    3762
    3765       3    3762    3768       3    3777    3780       1    3774    3777
       3    3774    3780       3    3789    3792       1    3786    3789       3
    3786    3792       3    3801    3804       1    3798    3801       3    3798
    3804       3    3813    3816       1    3810    3813       3    3810    3816
       3    3825    3828       1    3822    3825       3    3822    3828       3
    3837    3840       1    3834    3837       3    3834    3840       3    3849
    3852       1    3846    3849       3    3846    3852       3    3861    3864
       1    3858    3861       3    3858    3864       3    3873    3876       1
    3870    3873       3    3870    3876       3    3885    3888       1    3882
    3885       3    3882    3888       3    3897    3900       1    3894    3897
       3    3894    3900       3    3909    3912       1    3906    3909       3
    3906    3912       3    3921    3924       1    3918    3921       3    3918
    3924       3    3933    3936       1    3930    3933       3    3930    3936
       3    3945    3948       1    3942    3945       3    3942    3948       3
    3957    3960       1    3954    3957       3    3954    3960       3    3969
    3972       1    3966    3969       3    3966    3972       3    3981    3984
       1    3978    3981       3    3978    3984       3    3993    3996       1
    3990    3993       3    3990    3996       3    4005    4008       1    4002
    4005       3    4002    4008       3    4017    4020       1    4014    4017
       3    4014    4020       3    4029    4032       1    4026    4029       3
    4026    4032       3    4041    4044       1    4038    4041       3    4038
    4044       3    4053    4056       1    4050    4053       3    4050    4056
       3    4065    4068       1    4062    4065       3    4062    4068       3
    4077    4080       1    4074    4077       3    4074    4080       3    4089
    4092       1    4086    4089       3    4086    4092       3    4101    4104
       1    4098    4101       3    4098    4104       3    4113    4116       1
    4110    4113       3    4110    4116       3    4125    4128       1    4122
    4125       3    4122    4128       3    4137    4140       1    4134    4137
       3    4134    4140       3    4149    4152       1    4146    4149       3
    4146    4152       3    4161    4164       1    4158    4161       3    4158
    4164       3    4173    4176       1    4170    4173       3    4170    4176
       3    4185    4188       1    4182    4185       3    4182    4188       3
    4197    4200       1    4194    4197       3    4194    4200       3    4209
    4212       1    4206    4209       3    4206    4212       3    4221    4224
       1    4218    4221       3    4218    4224       3    4233    4236       1
    4230    4233       3    4230    4236       3    4245    4248       1    4242
    4245       3    4242    4248       3    4257    4260       1    4254    4257
       3    4254    4260       3    4269    4272       1    4266    4269       3
    4266    4272       3    4281    4284       1    4278    4281       3    4278
    4284       3    4293    4296       1    4290    4293       3    4290    4296
       3    4305    4308       1    4302    4305       3    4302    4308       3
    4317    4320       1    4314    4317       3    4314    4320       3    4329
    4332       1    4326    4329       3    4326    4332       3    4341    4344
       1    4338    4341       3    4338    4344       3    4353    4356       1
    4350    4353       3    4350    4356       3    4365    4368       1    4362
    4365       3    4362    4368       3    4377    4380       1    4374    4377
       3    4374    4380       3    4389    4392       1    4386    4389       3
    4386    4392       3    4401    4404       1    4398    4401       3    4398
    4404       3    4413    4416       1    4410    4413       3    4410    4416
       3    4425    4428       1    4422    4425       3    4422    4428       3
    4437    4440       1    4434    4437       3    4434    4440       3    4449
    4452       1    4446    4449       3    4446    4452       3    4461    4464
       1    4458    4461       3    4458    4464       3    4473    4476       1
    4470    4473       3    4470    4476       3    4485    4488       1    4482
    4485       3    4482    4488       3    4497    4500       1    4494    4497
       3    4494    4500       3    4509    4512       1    4506    4509       3
    4506    4512       3    4521    4524       1    4518    4521       3    4518
    4524       3    4533    4536       1    4530    4533       3    4530    4536
       3    4545    4548       1    4542    4545       3    4542    4548       3
    4557    4560       1    4554    4557       3    4554    4560       3    4569
    4572       1    4566    4569       3    4566    4572       3    4581    4584
       1    4578    4581       3    4578    4584       3    4593    4596       1
    4590    4593       3    4590    4596       3    4605    4608       1    4602
    4605       3    4602    4608       3    4617    4620       1    4614    4617
       3    4614    4620       3    4629    4632       1    4626    4629       3
    4626    4632       3    4641    4644       1    4638    4641       3    4638
    4644       3    4653    4656       1    4650    4653       3    4650    4656
       3    4665    4668       1    4662    4665       3    4662    4668       3
    4677    4680       1    4674    4677       3    4674    4680       3    4689
    4692       1    4686    4689       3    4686    4692       3    4701    4704
       1    4698    4701       3    4698    4704       3    4713    4716       1
    4710    4713       3    4710    4716       3    4725    4728       1    4722
    4725       3    4722    4728       3    4737    4740       1    4734    4737
       3    4734    4740       3    4749    4752       1    4746    4749       3
    4746    4752       3    4761    4764       1    4758    4761       3    4758
    4764       3    4773    4776       1    4770    4773       3    4770    4776
       3    4785    4788       1    4782    4785       3    4782    4788       3
    4797    4800       1    4794    4797       3    4794    4800       3    4809
    4812       1    4806    4809       3    4806    4812       3    4821    4824
       1    4818    4821       3    4818    4824       3    4833    4836       1
    4830    4833       3    4830    4836       3    4845    4848       1    4842
    4845       3    4842    4848       3    4857    4860       1    4854    4857
       3    4854    4860       3    4869    4872       1    4866    4869       3
    4866    4872       3    4881    4884       1    4878    4881       3    4878
    4884       3    4893    4896       1    4890    4893       3    4890    4896
       3    4905    4908       1    4902    4905       3    4902    4908       3
    4917    4920       1    4914    4917       3    4914    4920       3    4929
    4932       1    4926    4929       3    4926    4932       3    4941    4944
       1    4938    4941       3    4938    4944       3    4953    4956       1
    4950    4953       3    4950    4956       3    4965    4968       1    4962
    4965       3    4962    4968       3    4977    4980       1    4974    4977
       3    4974    4980       3    4989    4992       1    4986    4989       3
    4986    4992       3    5001    5004       1    4998    5001       3    4998
    5004       3    5013    5016       1    5010    5013       3    5010    5016
       3    5025    5028       1    5022    5025       3    5022    5028       3
    5037    5040       1    5034    5037       3    5034    5040       3    5049
    5052       1    5046    5049       3    5046    5052       3    5061    5064
       1    5058    5061       3    5058    5064       3    5073    5076       1
    5070    5073       3    5070    5076       3    5085    5088       1    5082
    5085       3    5082    5088       3    5097    5100       1    5094    5097
       3    5094    5100       3    5109    5112       1    5106    5109       3
    5106    5112       3    5121    5124       1    5118    5121       3    5118
    5124       3    5133    5136       1    5130    5133       3    5130    5136
       3    5145    5148       1    5142    5145       3    5142    5148       3
    5157    5160       1    5154    5157       3    5154    5160       3    5169
    5172       1    5166    5169       3    5166    5172       3    5181    5184
       1    5178    5181       3    5178    5184       3    5193    5196       1
    5190    5193       3    5190    5196       3    5205    5208       1    5202
    5205       3    5202    5208       3    5217    5220       1    5214    5217
       3    5214    5220       3    5229    5232       1    5226    5229       3
    5226    5232       3    5241    5244       1    5238    5241       3    5238
    5244       3    5253    5256       1    5250    5253       3    5250    5256
       3    5265    5268       1    5262    5265       3    5262    5268       3
    5277    5280       1    5274    5277       3    5274    5280       3    5289
    5292       1    5286    5289       3    5286    5292       3    5301    5304
       1    5298    5301       3    5298    5304       3    5313    5316       1
    5310    5313       3    5310    5316       3    5325    5328       1    5322
    5325       3    5322    5328       3    5337    5340       1    5334    5337
       3    5334    5340       3    5349    5352       1    5346    5349       3
    5346    5352       3    5361    5364       1    5358    5361       3    5358
    5364       3    5373    5376       1    5370    5373       3    5370    5376
       3    5385    5388       1    5382    5385       3    5382    5388       3
    5397    5400       1    5394    5397       3    5394    5400       3    5409
    5412       1    5406    5409       3    5406    5412       3    5421    5424
       1    5418    5421       3    5418    5424       3    5433    5436       1
    5430    5433       3    5430    5436       3    5445    5448       1    5442
    5445       3    5442    5448       3    5457    5460       1    5454    5457
       3    5454    5460       3    5469    5472       1    5466    5469       3
    5466    5472       3    5481    5484       1    5478    5481       3    5478
    5484       3    5493    5496       1    5490    5493       3    5490    5496
       3    5505    5508       1    5502    5505       3    5502    5508       3
    5517    5520       1    5514    5517       3    5514    5520       3    5529
    5532       1    5526    5529       3    5526    5532       3    5541    5544
       1    5538    5541       3    5538    5544       3    5553    5556       1
    5550    5553       3    5550    5556       3    5565    5568       1    5562
    5565       3    5562    5568       3    5577    5580       1    5574    5577
       3    5574    5580       3    5589    5592       1    5586    5589       3
    5586    5592       3    5601    5604       1    5598    5601       3    5598
    5604       3    5613    5616       1    5610    5613       3    5610    5616
       3    5625    5628       1    5622    5625       3    5622    5628       3
    5637    5640       1    5634    5637       3    5634    5640       3    5649
    5652       1    5646    5649       3    5646    5652       3    5661    5664
       1    5658    5661       3    5658    5664       3    5673    5676       1
    5670    5673       3    5670    5676       3    5685    5688       1    5682
    5685       3    5682    5688       3    5697    5700       1    5694    5697
       3    5694    5700       3    5709    5712       1    5706    5709       3
    5706    5712       3    5721    5724       1    5718    5721       3    5718
    5724       3    5733    5736       1    5730    5733       3    5730    5736
       3    5745    5748       1    5742    5745       3    5742    5748       3
    5757    5760       1    5754    5757       3    5754    5760       3    5769
    5772       1    5766    5769       3    5766    5772       3    5781    5784
       1    5778    5781       3    5778    5784       3    5793    5796       1
    5790    5793       3    5790    5796       3    5805    5808       1    5802
    5805       3    5802    5808       3    5817    5820       1    5814    5817
       3    5814    5820       3    5829    5832       1    5826    5829       3
    5826    5832       3    5841    5844       1    5838    5841       3    5838
    5844       3    5853    5856       1    5850    5853       3    5850    5856
       3    5865    5868       1    5862    5865       3    5862    5868       3
    5877    5880       1    5874    5877       3    5874    5880       3    5889
    5892       1    5886    5889       3    5886    5892       3    5901    5904
       1    5898    5901       3    5898    5904       3    5913    5916       1
    5910    5913       3    5910    5916       3    5925    5928       1    5922
    5925       3    5922    5928       3    5937    5940       1    5934    5937
       3    5934    5940       3    5949    5952       1    5946    5949       3
    5946    5952       3    5961    5964       1    5958    5961       3    5958
    5964       3    5973    5976       1    5970    5973       3    5970    5976
       3    5985    5988       1    5982    5985       3    5982    5988       3
    5997    6000       1    5994    5997       3    5994    6000       3    6009
    6012       1    6006    6009       3    6006    6012       3    6021    6024
       1    6018    6021       3    6018    6024       3    6033    6036       1
    6030    6033       3    6030    6036       3    6045    6048       1    6042
    6045       3    6042    6048       3    6057    6060       1    6054    6057
       3    6054    6060       3    6069    6072       1    6066    6069       3
    6066    6072       3    6081    6084       1    6078    6081       3    6078
    6084       3    6093    6096       1    6090    6093       3    6090    6096
       3    6105    6108       1    6102    6105       3    6102    6108       3
    6117    6120       1    6114    6117       3    6114    6120       3    6129
    6132       1    6126    6129       3    6126    6132       3    6141    6144
       1    6138    6141       3    6138    6144       3    6153    6156       1
    6150    6153       3    6150    6156       3    6165    6168       1    6162
    6165       3    6162    6168       3    6177    6180       1    6174    6177
       3    6174    6180       3    6189    6192       1    6186    6189       3
    6186    6192       3    6201    6204       1    6198    6201       3    6198
    6204       3    6213    6216       1    6210    6213       3    6210    6216
       3    6225    6228       1    6222    6225       3    6222    6228       3
    6237    6240       1    6234    6237       3    6234    6240       3    6249
    6252       1    6246    6249       3    6246    6252       3    6261    6264
       1    6258    6261       3    6258    6264       3    6273    6276       1
    6270    6273       3    6270    6276       3    6285    6288       1    6282
    6285       3    6282    6288       3    6297    6300       1    6294    6297
       3    6294    6300       3    6309    6312       1    6306    6309       3
    6306    6312       3    6321    6324       1    6318    6321       3    6318
    6324       3    6333    6336       1    6330    6333       3    6330    6336
       3    6345    6348       1    6342    6345       3    6342    6348       3
    6357    6360       1    6354    6357       3    6354    6360       3    6369
    6372       1    6366    6369       3    6366    6372       3    6381    6384
       1    6378    6381       3    6378    6384       3    6393    6396       1
    6390    6393       3    6390    6396       3    6405    6408       1    6402
    6405       3    6402    6408       3    6417    6420       1    6414    6417
       3    6414    6420       3    6429    6432       1    6426    6429       3
    6426    6432       3    6441    6444       1    6438    6441       3    6438
    6444       3    6453    6456       1    6450    6453       3    6450    6456
       3    6465    6468       1    6462    6465       3    6462    6468       3
    6477    6480       1    6474    6477       3    6474    6480       3    6489
    6492       1    6486    6489       3    6486    6492       3    6501    6504
       1    6498    6501       3    6498    6504       3    6513    6516       1
    6510    6513       3    6510    6516       3    6525    6528       1    6522
    6525       3    6522    6528       3    6537    6540       1    6534    6537
       3    6534    6540       3    6549    6552       1    6546    6549       3
    6546    6552       3    6561    6564       1    6558    6561       3    6558
    6564       3    6573    6576       1    6570    6573       3    6570    6576
       3    6585    6588       1    6582    6585       3    6582    6588       3
    6597    6600       1    6594    6597       3    6594    6600       3    6609
    6612       1    6606    6609       3    6606    6612       3    6621    6624
       1    6618    6621       3    6618    6624       3    6633    6636       1
    6630    6633       3    6630    6636       3    6645    6648       1    6642
    6645       3    6642    6648       3    6657    6660       1    6654    6657
       3    6654    6660       3    6669    6672       1    6666    6669       3
    6666    6672       3    6681    6684       1    6678    6681       3    6678
    6684       3    6693    6696       1    6690    6693       3    6690    6696
       3    6705    6708       1    6702    6705       3    6702    6708       3
    6717    6720       1    6714    6717       3    6714    6720       3    6729
    6732       1    6726    6729       3    6726    6732       3    6741    6744
       1    6738    6741       3    6738    6744       3    6753    6756       1
    6750    6753       3    6750    6756       3    6765    6768       1    6762
    6765       3    6762    6768       3    6777    6780       1    6774    6777
       3    6774    6780       3    6789    6792       1    6786    6789       3
    6786    6792       3    6801    6804       1    6798    6801       3    6798
    6804       3    6813    6816       1    6810    6813       3    6810    6816
       3    6825    6828       1    6822    6825       3    6822    6828       3
    6837    6840       1    6834    6837       3    6834    6840       3    6849
    6852       1    6846    6849       3    6846    6852       3    6861    6864
       1    6858    6861       3    6858    6864       3    6873    6876       1
    6870    6873       3    6870    6876       3    6885    6888       1    6882
    6885       3    6882    6888       3    6897    6900       1    6894    6897
       3    6894    6900       3    6909    6912       1    6906    6909       3
    6906    6912       3    6921    6924       1    6918    6921       3    6918
    6924       3    6933    6936       1    6930    6933       3    6930    6936
       3    6945    6948       1    6942    6945       3    6942    6948       3
    6957    6960       1    6954    6957       3    6954    6960       3    6969
    6972       1    6966    6969       3    6966    6972       3    6981    6984
       1    6978    6981       3    6978    6984       3    6993    6996       1
    6990    6993       3    6990    6996       3    7005    7008       1    7002
    7005       3    7002    7008       3    7017    7020       1    7014    7017
       3    7014    7020       3    7029    7032       1    7026    7029       3
    7026    7032       3    7041    7044       1    7038    7041       3    7038
    7044       3    7053    7056       1    7050    7053       3    7050    7056
       3    7065    7068       1    7062    7065       3    7062    7068       3
    7077    7080       1    7074    7077       3    7074    7080       3    7089
    7092       1    7086    7089       3    7086    7092       3    7101    7104
       1    7098    7101       3    7098    7104       3    7113    7116       1
    7110    7113       3    7110    7116       3    7125    7128       1    7122
    7125       3    7122    7128       3    7137    7140       1    7134    7137
       3    7134    7140       3    7149    7152       1    7146    7149       3
    7146    7152       3    7161    7164       1    7158    7161       3    7158
    7164       3    7173    7176       1    7170    7173       3    7170    7176
       3    7185    7188       1    7182    7185       3    7182    7188       3
    7197    7200       1    7194    7197       3    7194    7200       3    7209
    7212       1    7206    7209       3    7206    7212       3    7221    7224
       1    7218    7221       3    7218    7224       3    7233    7236       1
    7230    7233       3    7230    7236       3    7245    7248       1    7242
    7245       3    7242    7248       3    7257    7260       1    7254    7257
       3    7254    7260       3    7269    7272       1    7266    7269       3
    7266    7272       3    7281    7284       1    7278    7281       3    7278
    7284       3    7293    7296       1    7290    7293       3    7290    7296
       3    7305    7308       1    7302    7305       3    7302    7308       3
    7317    7320       1    7314    7317       3    7314    7320       3    7329
    7332       1    7326    7329       3    7326    7332       3    7341    7344
       1    7338    7341       3    7338    7344       3    7353    7356       1
    7350    7353       3    7350    7356       3    7365    7368       1    7362
    7365       3    7362    7368       3    7377    7380       1    7374    7377
       3    7374    7380       3    7389    7392       1    7386    7389       3
    7386    7392       3    7401    7404       1    7398    7401       3    7398
    7404       3    7413    7416       1    7410    7413       3    7410    7416
       3    7425    7428       1    7422    7425       3    7422    7428       3
    7437    7440       1    7434    7437       3    7434    7440       3    7449
    7452       1    7446    7449       3    7446    7452       3    7461    7464
       1    7458    7461       3    7458    7464       3    7473    7476       1
    7470    7473       3    7470    7476       3    7485    7488       1    7482
    7485       3    7482    7488       3    7497    7500       1    7494    7497
       3    7494    7500       3    7509    7512       1    7506    7509       3
    7506    7512       3    7521    7524       1    7518    7521       3    7518
    7524       3    7533    7536       1    7530    7533       3    7530    7536
       3    7545    7548       1    7542    7545       3    7542    7548       3
    7557    7560       1    7554    7557       3    7554    7560       3    7569
    7572       1    7566    7569       3    7566    7572       3    7581    7584
       1    7578    7581       3    7578    7584       3    7593    7596       1
    7590    7593       3    7590    7596       3    7605    7608       1    7602
    7605       3    7602    7608       3    7617    7620       1    7614    7617
       3    7614    7620       3    7629    7632       1    7626    7629       3
    7626    7632       3    7641    7644       1    7638    7641       3    7638
    7644       3    7653    7656       1    7650    7653       3    7650    7656
       3    7665    7668       1    7662    7665       3    7662    7668       3
    7677    7680       1    7674    7677       3    7674    7680       3    7689
    7692       1    7686    7689       3    7686    7692       3    7701    7704
       1    7698    7701       3    7698    7704       3    7713    7716       1
    7710    7713       3    7710    7716       3    7725    7728       1    7722
    7725       3    7722    7728       3    7737    7740       1    7734    7737
       3    7734    7740       3    7749    7752       1    7746    7749       3
    7746    7752       3    7761    7764       1    7758    7761       3    7758
    7764       3    7773    7776       1    7770    7773       3    7770    7776
       3    7785    7788       1    7782    7785       3    7782    7788       3
    7797    7800       1    7794    7797       3    7794    7800       3    7809
    7812       1    7806    7809       3    7806    7812       3    7821    7824
       1    7818    7821       3    7818    7824       3    7833    7836       1
    7830    7833       3    7830    7836       3    7845    7848       1    7842
    7845       3    7842    7848       3    7857    7860       1    7854    7857
       3    7854    7860       3    7869    7872       1    7866    7869       3
    7866    7872       3    7881    7884       1    7878    7881       3    7878
    7884       3    7893    7896       1    7890    7893       3    7890    7896
       3    7905    7908       1    7902    7905       3    7902    7908       3
    7917    7920       1    7914    7917       3    7914    7920       3    7929
    7932       1    7926    7929       3    7926    7932       3    7941    7944
       1    7938    7941       3    7938    7944       3    7953    7956       1
    7950    7953       3    7950    7956       3    7965    7968       1    7962
    7965       3    7962    7968       3    7977    7980       1    7974    7977
       3    7974    7980       3    7989    7992       1    7986    7989       3
    7986    7992       3    8001    8004       1    7998    8001       3    7998
    8004       3    8013    8016       1    8010    8013       3    8010    8016
       3    8025    8028       1    8022    8025       3    8022    8028       3
    8037    8040       1    8034    8037       3    8034    8040       3    8049
    8052       1    8046    8049       3    8046    8052       3    8061    8064
       1    8058    8061       3    8058    8064       3    8073    8076       1
    8070    8073       3    8070    8076       3    8085    8088       1    8082
    8085       3    8082    8088       3    8097    8100       1    8094    8097
       3    8094    8100       3    8109    8112       1    8106    8109       3
    8106    8112       3    8121    8124       1    8118    8121       3    8118
    8124       3    8133    8136       1    8130    8133       3    8130    8136
       3    8145    8148       1    8142    8145       3    8142    8148       3
    8157    8160       1    8154    8157       3    8154    8160       3    8169
    8172       1    8166    8169       3    8166    8172       3    8181    8184
       1    8178    8181       3    8178    8184       3    8193    8196       1
    8190    8193       3    8190    8196       3    8205    8208       1    8202
    8205       3    8202    8208       3    8217    8220       1    8214    8217
       3    8214    8220       3    8229    8232       1    8226    8229       3
    8226    8232       3    8241    8244       1    8238    8241       3    8238
    8244       3    8253    8256       1    8250    8253       3    8250    8256
       3    8265    8268       1    8262    8265       3    8262    8268       3
    8277    8280       1    8274    8277       3    8274    8280       3    8289
    8292       1    8286    8289       3    8286    8292       3    8301    8304
       1    8298    8301       3    8298    8304       3    8313    8316       1
    8310    8313       3    8310    8316       3    8325    8328       1    8322
    8325       3    8322    8328       3    8337    8340       1    8334    8337
       3    8334    8340       3    8349    8352       1    8346    8349       3
    8346    8352       3    8361    8364       1    8358    8361       3    8358
    8364       3    8373    8376       1    8370    8373       3    8370    8376
       3    8385    8388       1    8382    8385       3    8382    8388       3
    8397    8400       1    8394    8397       3    8394    8400       3    8409
    8412       1    8406    8409       3    8406    8412       3    8421    8424
       1    8418    8421       3    8418    8424       3    8433    8436       1
    8430    8433       3    8430    8436       3    8445    8448       1    8442
    8445       3    8442    8448       3    8457    8460       1    8454    8457
       3    8454    8460       3    8469    8472       1    8466    8469       3
    8466    8472       3    8481    8484       1    8478    8481       3    8478
    8484       3    8493    8496       1    8490    8493       3    8490    8496
       3    8505    8508       1    8502    8505       3    8502    8508       3
    8517    8520       1    8514    8517       3    8514    8520       3    8529
    8532       1    8526    8529       3    8526    8532       3    8541    8544
       1    8538    8541       3    8538    8544       3    8553    8556       1
    8550    8553       3    8550    8556       3    8565    8568       1    8562
    8565       3    8562    8568       3    8577    8580       1    8574    8577
       3    8574    8580       3    8589    8592       1    8586    8589       3
    8586    8592       3    8601    8604       1    8598    8601       3    8598
    8604       3    8613    8616       1    8610    8613       3    8610    8616
       3    8625    8628       1    8622    8625       3    8622    8628       3
    8637    8640       1    8634    8637       3    8634    8640       3    8649
    8652       1    8646    8649       3    8646    8652       3    8661    8664
       1    8658    8661       3    8658    8664       3    8673    8676       1
    8670    8673       3    8670    8676       3    8685    8688       1    8682
    8685       3    8682    8688       3    8697    8700       1    8694    8697
       3    8694    8700       3    8709    8712       1    8706    8709       3
    8706    8712       3    8721    8724       1    8718    8721       3    8718
    8724       3    8733    8736       1    8730    8733       3    8730    8736
       3    8745    8748       1    8742    8745       3    8742    8748       3
    8757    8760       1    8754    8757       3    8754    8760       3    8769
    8772       1    8766    8769       3    8766    8772       3    8781    8784
       1    8778    8781       3    8778    8784       3    8793    8796       1
    8790    8793       3    8790    8796       3    8805    8808       1    8802
    8805       3    8802    8808       3    8817    8820       1    8814    8817
       3    8814    8820       3    8829    8832       1    8826    8829       3
    8826    8832       3    8841    8844       1    8838    8841       3    8838
    8844       3    8853    8856       1    8850    8853       3    8850    8856
       3    8865    8868       1    8862    8865       3    8862    8868       3
    8877    8880       1    8874    8877       3    8874    8880       3    8889
    8892       1    8886    8889       3    8886    8892       3    8901    8904
       1    8898    8901       3    8898    8904       3    8913    8916       1
    8910    8913       3    8910    8916       3    8925    8928       1    8922
    8925       3    8922    8928       3    8937    8940       1    8934    8937
       3    8934    8940       3    8949    8952       1    8946    8949       3
    8946    8952       3    8961    8964       1    8958    8961       3    8958
    8964       3    8973    8976       1    8970    8973       3    8970    8976
       3    8985    8988       1    8982    8985       3    8982    8988       3
    8997    9000       1    8994    8997       3    8994    9000       3    9009
    9012       1    9006    9009       3    9006    9012       3    9021    9024
       1    9018    9021       3    9018    9024       3    9033    9036       1
    9030    9033       3    9030    9036       3    9045    9048       1    9042
    9045       3    9042    9048       3    9057    9060       1    9054    9057
       3    9054    9060       3    9069    9072       1    9066    9069       3
    9066    9072       3    9081    9084       1    9078    9081       3    9078
    9084       3    9093    9096       1    9090    9093       3    9090    9096
       3    9105    9108       1    9102    9105       3    9102    9108       3
    9117    9120       1    9114    9117       3    9114    9120       3    9129
    9132       1    9126    9129       3    9126    9132       3    9141    9144
       1    9138    9141       3    9138    9144       3    9153    9156       1
    9150    9153       3    9150    9156       3    9165    9168       1    9162
    9165       3    9162    9168       3    9177    9180       1    9174    9177
       3    9174    9180       3    9189    9192       1    9186    9189       3
    9186    9192       3    9201    9204       1    9198    9201       3    9198
    9204       3    9213    9216       1    9210    9213       3    9210    9216
       3    9225    9228       1    9222    9225       3    9222    9228       3
    9237    9240       1    9234    9237       3    9234    9240       3    9249
    9252       1    9246    9249       3    9246    9252       3    9261    9264
       1    9258    9261       3    9258    9264       3    9273    9276       1
    9270    9273       3    9270    9276       3    9285    9288       1    9282
    9285       3    9282    9288       3    9297    9300       1    9294    9297
       3    9294    9300       3    9309    9312       1    9306    9309       3
    9306    9312       3    9321    9324       1    9318    9321       3    9318
    9324       3    9333    9336       1    9330    9333       3    9330    9336
       3    9345    9348       1    9342    9345       3    9342    9348       3
    9357    9360       1    9354    9357       3    9354    9360       3    9369
    9372       1    9366    9369       3    9366    9372       3    9381    9384
       1    9378    9381       3    9378    9384       3    9393    9396       1
    9390    9393       3    9390    9396       3    9405    9408       1    9402
    9405       3    9402    9408       3    9417    9420       1    9414    9417
       3    9414    9420       3    9429    9432       1    9426    9429       3
    9426    9432       3    9441    9444       1    9438    9441       3    9438
    9444       3    9453    9456       1    9450    9453       3    9450    9456
       3    9465    9468       1    9462    9465       3    9462    9468       3
    9477    9480       1    9474    9477       3    9474    9480       3    9489
    9492       1    9486    9489       3    9486    9492       3    9501    9504
       1    9498    9501       3    9498    9504       3    9513    9516       1
    9510    9513       3    9510    9516       3    9525    9528       1    9522
    9525       3    9522    9528       3    9537    9540       1    9534    9537
       3    9534    9540       3    9549    9552       1    9546    9549       3
    9546    9552       3    9561    9564       1    9558    9561       3    9558
    9564       3    9573    9576       1    9570    9573       3    9570    9576
       3    9585    9588       1    9582    9585       3    9582    9588       3
    9597    9600       1    9594    9597       3    9594    9600       3    9609
    9612       1    9606    9609       3    9606    9612       3    9621    9624
       1    9618    9621       3    9618    9624       3    9633    9636       1
    9630    9633       3    9630    9636       3    9645    9648       1    9642
    9645       3    9642    9648       3    9657    9660       1    9654    9657
       3    9654    9660       3    9669    9672       1    9666    9669       3
    9666    9672       3    9681    9684       1    9678    9681       3    9678
    9684       3    9693    9696       1    9690    9693       3    9690    9696
       3    9705    9708       1    9702    9705       3    9702    9708       3
    9717    9720       1    9714    9717       3    9714    9720       3    9729
    9732       1    9726    9729       3    9726    9732       3    9741    9744
       1    9738    9741       3    9738    9744       3    9753    9756       1
    9750    9753       3    9750    9756       3    9765    9768       1    9762
    9765       3    9762    9768       3    9777    9780       1    9774    9777
       3    9774    9780       3    9789    9792       1    9786    9789       3
    9786    9792       3    9801    9804       1    9798    9801       3    9798
    9804       3    9813    9816       1    9810    9813       3    9810    9816
       3    9825    9828       1    9822    9825       3    9822    9828       3
    9837    9840       1    9834    9837       3    9834    9840       3    9849
    9852       1    9846    9849       3    9846    9852       3    9861    9864
       1    9858    9861       3    9858    9864       3    9873    9876       1
    9870    9873       3    9870    9876       3    9885    9888       1    9882
    9885       3    9882    9888       3    9897    9900       1    9894    9897
       3    9894    9900       3    9909    9912       1    9906    9909       3
    9906    9912       3    9921    9924       1    9918    9921       3    9918
    9924       3    9933    9936       1    9930    9933       3    9930    9936
       3    9945    9948       1    9942    9945       3    9942    9948       3
    9957    9960       1    9954    9957       3    9954    9960       3    9969
    9972       1    9966    9969       3    9966    9972       3    9981    9984
       1    9978    9981       3    9978    9984       3    9993    9996       1
    9990    9993       3    9990    9996       3   10005   10008       1   10002
   10005       3   10002   10008       3   10017   10020       1   10014   10017
       3   10014   10020       3   10029   10032       1   10026   10029       3
   10026   10032       3   10041   10044       1   10038   10041       3   10038
   10044       3   10053   10056       1   10050   10053       3   10050   10056
       3   10065   10068       1   10062   10065       3   10062   10068       3
   10077   10080       1   10074   10077       3   10074   10080       3   10089
   10092       1   10086   10089       3   10086   10092       3   10101   10104
       1   10098   10101       3   10098   10104       3   10113   10116       1
   10110   10113       3   10110   10116       3   10125   10128       1   10122
   10125       3   10122   10128       3   10137   10140       1   10134   10137
       3   10134   10140       3   10149   10152       1   10146   10149       3
   10146   10152       3   10161   10164       1   10158   10161       3   10158
   10164       3   10173   10176       1   10170   10173       3   10170   10176
       3   10185   10188       1   10182   10185       3   10182   10188       3
   10197   10200       1   10194   10197       3   10194   10200       3   10209
   10212       1   10206   10209       3   10206   10212       3   10221   10224
       1   10218   10221       3   10218   10224       3   10233   10236       1
   10230   10233       3   10230   10236       3   10245   10248       1   10242
   10245       3   10242   10248       3   10257   10260       1   10254   10257
       3   10254   10260       3   10269   10272       1   10266   10269       3
   10266   10272       3   10281   10284       1   10278   10281       3   10278
   10284       3   10293   10296       1   10290   10293       3   10290   10296
       3   10305   10308       1   10302   10305       3   10302   10308       3
   10317   10320       1   10314   10317       3   10314   10320       3   10329
   10332       1   10326   10329       3   10326   10332       3   10341   10344
       1   10338   10341       3   10338   10344       3   10353   10356       1
   10350   10353       3   10350   10356       3   10365   10368       1   10362
   10365       3   10362   10368       3   10377   10380       1   10374   10377
       3   10374   10380       3   10389   10392       1   10386   10389       3
   10386   10392       3   10401   10404       1   10398   10401       3   10398
   10404       3   10413   10416       1   10410   10413       3   10410   10416
       3   10425   10428       1   10422   10425       3   10422   10428       3
   10437   10440       1   10434   10437       3   10434   10440       3   10449
   10452       1   10446   10449       3   10446   10452       3   10461   10464
       1   10458   10461       3   10458   10464       3   10473   10476       1
   10470   10473       3   10470   10476       3   10485   10488       1   10482
   10485       3   10482   10488       3   10497   10500       1   10494   10497
       3   10494   10500       3   10509   10512       1   10506   10509       3
   10506   10512       3   10521   10524       1   10518   10521       3   10518
   10524       3   10533   10536       1   10530   10533       3   10530   10536
       3   10545   10548       1   10542   10545       3   10542   10548       3
   10557   10560       1   10554   10557       3   10554   10560       3   10569
   10572       1   10566   10569       3   10566   10572       3   10581   10584
       1   10578   10581       3   10578   10584       3   10593   10596       1
   10590   10593       3   10590   10596       3   10605   10608       1   10602
   10605       3   10602   10608       3   10617   10620       1   10614   10617
       3   10614   10620       3   10629   10632       1   10626   10629       3
   10626   10632       3   10641   10644       1   10638   10641       3   10638
   10644       3   10653   10656       1   10650   10653       3   10650   10656
       3   10665   10668       1   10662   10665       3   10662   10668       3
   10677   10680       1   10674   10677       3   10674   10680       3   10689
   10692       1   10686   10689       3   10686   10692       3   10701   10704
       1   10698   10701       3   10698   10704       3   10713   10716       1
   10710   10713       3   10710   10716       3   10725   10728       1   10722
   10725       3   10722   10728       3   10737   10740       1   10734   10737
       3   10734   10740       3   10749   10752       1   10746   10749       3
   10746   10752       3   10761   10764       1   10758   10761       3   10758
   10764       3   10773   10776       1   10770   10773       3   10770   10776
       3   10785   10788       1   10782   10785       3   10782   10788       3
   10797   10800       1   10794   10797       3   10794   10800       3   10809
   10812       1   10806   10809       3   10806   10812       3   10821   10824
       1   10818   10821       3   10818   10824       3   10833   10836       1
   10830   10833       3   10830   10836       3   10845   10848       1   10842
   10845       3   10842   10848       3   10857   10860       1   10854   10857
       3   10854   10860       3   10869   10872       1   10866   10869       3
   10866   10872       3   10881   10884       1   10878   10881       3   10878
   10884       3   10893   10896       1   10890   10893       3   10890   10896
       3   10905   10908       1   10902   10905       3   10902   10908       3
   10917   10920       1   10914   10917       3   10914   10920       3   10929
   10932       1   10926   10929       3   10926   10932       3   10941   10944
       1   10938   10941       3   10938   10944       3   10953   10956       1
   10950   10953       3   10950   10956       3   10965   10968       1   10962
   10965       3   10962   10968       3   10977   10980       1   10974   10977
       3   10974   10980       3   10989   10992       1   10986   10989       3
   10986   10992       3   11001   11004       1   10998   11001       3   10998
   11004       3   11013   11016       1   11010   11013       3   11010   11016
       3   11025   11028       1   11022   11025       3   11022   11028       3
   11037   11040       1   11034   11037       3   11034   11040       3   11049
   11052       1   11046   11049       3   11046   11052       3   11061   11064
       1   11058   11061       3   11058   11064       3   11073   11076       1
   11070   11073       3   11070   11076       3   11085   11088       1   11082
   11085       3   11082   11088       3   11097   11100       1   11094   11097
       3   11094   11100       3   11109   11112       1   11106   11109       3
   11106   11112       3   11121   11124       1   11118   11121       3   11118
   11124       3   11133   11136       1   11130   11133       3   11130   11136
       3   11145   11148       1   11142   11145       3   11142   11148       3
   11157   11160       1   11154   11157       3   11154   11160       3   11169
   11172       1   11166   11169       3   11166   11172       3   11181   11184
       1   11178   11181       3   11178   11184       3   11193   11196       1
   11190   11193       3   11190   11196       3   11205   11208       1   11202
   11205       3   11202   11208       3   11217   11220       1   11214   11217
       3   11214   11220       3   11229   11232       1   11226   11229       3
   11226   11232       3   11241   11244       1   11238   11241       3   11238
   11244       3   11253   11256       1   11250   11253       3   11250   11256
       3   11265   11268       1   11262   11265       3   11262   11268       3
   11277   11280       1   11274   11277       3   11274   11280       3   11289
   11292       1   11286   11289       3   11286   11292       3   11301   11304
       1   11298   11301       3   11298   11304       3   11313   11316       1
   11310   11313       3   11310   11316       3   11325   11328       1   11322
   11325       3   11322   11328       3   11337   11340       1   11334   11337
       3   11334   11340       3   11349   11352       1   11346   11349       3
   11346   11352       3   11361   11364       1   11358   11361       3   11358
   11364       3   11373   11376       1   11370   11373       3   11370   11376
       3   11385   11388       1   11382   11385       3   11382   11388       3
   11397   11400       1   11394   11397       3   11394   11400       3   11409
   11412       1   11406   11409       3   11406   11412       3   11421   11424
       1   11418   11421       3   11418   11424       3   11433   11436       1
   11430   11433       3   11430   11436       3   11445   11448       1   11442
   11445       3   11442   11448       3   11457   11460       1   11454   11457
       3   11454   11460       3   11469   11472       1   11466   11469       3
   11466   11472       3   11481   11484       1   11478   11481       3   11478
   11484       3   11493   11496       1   11490   11493       3   11490   11496
       3   11505   11508       1   11502   11505       3   11502   11508       3
   11517   11520       1   11514   11517       3   11514   11520       3   11529
   11532       1   11526   11529       3   11526   11532       3   11541   11544
       1   11538   11541       3   11538   11544       3   11553   11556       1
   11550   11553       3   11550   11556       3   11565   11568       1   11562
   11565       3   11562   11568       3   11577   11580       1   11574   11577
       3   11574   11580       3   11589   11592       1   11586   11589       3
   11586   11592       3   11601   11604       1   11598   11601       3   11598
   11604       3   11613   11616       1   11610   11613       3   11610   11616
       3   11625   11628       1   11622   11625       3   11622   11628       3
   11637   11640       1   11634   11637       3   11634   11640       3   11649
   11652       1   11646   11649       3   11646   11652       3   11661   11664
       1   11658   11661       3   11658   11664       3   11673   11676       1
   11670   11673       3   11670   11676       3   11685   11688       1   11682
   11685       3   11682   11688       3   11697   11700       1   11694   11697
       3   11694   11700       3   11709   11712       1   11706   11709       3
   11706   11712       3   11721   11724       1   11718   11721       3   11718
   11724       3   11733   11736       1   11730   11733       3   11730   11736
       3   11745   11748       1   11742   11745       3   11742   11748       3
   11757   11760       1   11754   11757       3   11754   11760       3   11769
   11772       1   11766   11769       3   11766   11772       3   11781   11784
       1   11778   11781       3   11778   11784       3   11793   11796       1
   11790   11793       3   11790   11796       3   11805   11808       1   11802
   11805       3   11802   11808       3   11817   11820       1   11814   11817
       3   11814   11820       3   11829   11832       1   11826   11829       3
   11826   11832       3   11841   11844       1   11838   11841       3   11838
   11844       3   11853   11856       1   11850   11853       3   11850   11856
       3   11865   11868       1   11862   11865       3   11862   11868       3
   11877   11880       1   11874   11877       3   11874   11880       3   11889
   11892       1   11886   11889       3   11886   11892       3   11901   11904
       1   11898   11901       3   11898   11904       3   11913   11916       1
   11910   11913       3   11910   11916       3   11925   11928       1   11922
   11925       3   11922   11928       3   11937   11940       1   11934   11937
       3   11934   11940       3   11949   11952       1   11946   11949       3
   11946   11952       3   11961   11964       1   11958   11961       3   11958
   11964       3   11973   11976       1   11970   11973       3   11970   11976
       3   11985   11988       1   11982   11985       3   11982   11988       3
   11997   12000       1   11994   11997       3   11994   12000       3   12009
   12012       1   12006   12009       3   12006   12012       3   12021   12024
       1   12018   12021       3   12018   12024       3   12033   12036       1
   12030   12033       3   12030   12036       3   12045   12048       1   12042
   12045       3   12042   12048       3   12057   12060       1   12054   12057
       3   12054   12060       3   12069   12072       1   12066   12069       3
   12066   12072       3   12081   12084       1   12078   12081       3   12078
   12084       3   12093   12096       1   12090   12093       3   12090   12096
       3   12105   12108       1   12102   12105       3   12102   12108       3
   12117   12120       1   12114   12117       3   12114   12120       3   12129
   12132       1   12126   12129       3   12126   12132       3   12141   12144
       1   12138   12141       3   12138   12144       3   12153   12156       1
   12150   12153       3   12150   12156       3   12165   12168       1   12162
   12165       3   12162   12168       3   12177   12180       1   12174   12177
       3   12174   12180       3   12189   12192       1   12186   12189       3
   12186   12192       3   12201   12204       1   12198   12201       3   12198
   12204       3   12213   12216       1   12210   12213       3   12210   12216
       3   12225   12228       1   12222   12225       3   12222   12228       3
   12237   12240       1   12234   12237       3   12234   12240       3   12249
   12252       1   12246   12249       3   12246   12252       3   12261   12264
       1   12258   12261       3   12258   12264       3   12273   12276       1
   12270   12273       3   12270   12276       3   12285   12288       1   12282
   12285       3   12282   12288       3   12297   12300       1   12294   12297
       3   12294   12300       3   12309   12312       1   12306   12309       3
   12306   12312       3   12321   12324       1   12318   12321       3   12318
   12324       3   12333   12336       1   12330   12333       3   12330   12336
       3   12345   12348       1   12342   12345       3   12342   12348       3
   12357   12360       1   12354   12357       3   12354   12360       3   12369
   12372       1   12366   12369       3   12366   12372       3   12381   12384
       1   12378   12381       3   12378   12384       3   12393   12396       1
   12390   12393       3   12390   12396       3   12405   12408       1   12402
   12405       3   12402   12408       3   12417   12420       1   12414   12417
       3   12414   12420       3   12429   12432       1   12426   12429       3
   12426   12432       3   12441   12444       1   12438   12441       3   12438
   12444       3   12453   12456       1   12450   12453       3   12450   12456
       3   12465   12468       1   12462   12465       3   12462   12468       3
   12477   12480       1   12474   12477       3   12474   12480       3   12489
   12492       1   12486   12489       3   12486   12492       3   12501   12504
       1   12498   12501       3   12498   12504       3   12513   12516       1
   12510   12513       3   12510   12516       3   12525   12528       1   12522
   12525       3   12522   12528       3   12537   12540       1   12534   12537
       3   12534   12540       3   12549   12552       1   12546   12549       3
   12546   12552       3   12561   12564       1   12558   12561       3   12558
   12564       3   12573   12576       1   12570   12573       3   12570   12576
       3   12585   12588       1   12582   12585       3   12582   12588       3
   12597   12600       1   12594   12597       3   12594   12600       3   12609
   12612       1   12606   12609       3   12606   12612       3   12621   12624
       1   12618   12621       3   12618   12624       3   12633   12636       1
   12630   12633       3   12630   12636       3   12645   12648       1   12642
   12645       3   12642   12648       3   12657   12660       1   12654   12657
       3   12654   12660       3   12669   12672       1   12666   12669       3
   12666   12672       3   12681   12684       1   12678   12681       3   12678
   12684       3   12693   12696       1   12690   12693       3   12690   12696
       3   12705   12708       1   12702   12705       3   12702   12708       3
   12717   12720       1   12714   12717       3   12714   12720       3   12729
   12732       1   12726   12729       3   12726   12732       3   12741   12744
       1   12738   12741       3   12738   12744       3   12753   12756       1
   12750   12753       3   12750   12756       3   12765   12768       1   12762
   12765       3   12762   12768       3   12777   12780       1   12774   12777
       3   12774   12780       3   12789   12792       1   12786   12789       3
   12786   12792       3   12801   12804       1   12798   12801       3   12798
   12804       3   12813   12816       1   12810   12813       3   12810   12816
       3   12825   12828       1   12822   12825       3   12822   12828       3
   12837   12840       1   12834   12837       3   12834   12840       3   12849
   12852       1   12846   12849       3   12846   12852       3   12861   12864
       1   12858   12861       3   12858   12864       3   12873   12876       1
   12870   12873       3   12870   12876       3   12885   12888       1   12882
   12885       3   12882   12888       3   12897   12900       1   12894   12897
       3   12894   12900       3   12909   12912       1   12906   12909       3
   12906   12912       3   12921   12924       1   12918   12921       3   12918
   12924       3   12933   12936       1   12930   12933       3   12930   12936
       3   12945   12948       1   12942   12945       3   12942   12948       3
   12957   12960       1   12954   12957       3   12954   12960       3   12969
   12972       1   12966   12969       3   12966   12972       3   12981   12984
       1   12978   12981       3   12978   12984       3   12993   12996       1
   12990   12993       3   12990   12996       3   13005   13008       1   13002
   13005       3   13002   13008       3   13017   13020       1   13014   13017
       3   13014   13020       3   13029   13032       1   13026   13029       3
   13026   13032       3   13041   13044       1   13038   13041       3   13038
   13044       3   13053   13056       1   13050   13053       3   13050   13056
       3   13065   13068       1   13062   13065       3   13062   13068       3
   13077   13080       1   13074   13077       3   13074   13080       3   13089
   13092       1   13086   13089       3   13086   13092       3   13101   13104
       1   13098   13101       3   13098   13104       3   13113   13116       1
   13110   13113       3   13110   13116       3   13125   13128       1   13122
   13125       3   13122   13128       3   13137   13140       1   13134   13137
       3   13134   13140       3   13149   13152       1   13146   13149       3
   13146   13152       3   13161   13164       1   13158   13161       3   13158
   13164       3   13173   13176       1   13170   13173       3   13170   13176
       3   13185   13188       1   13182   13185       3   13182   13188       3
   13197   13200       1   13194   13197       3   13194   13200       3   13209
   13212       1   13206   13209       3   13206   13212       3   13221   13224
       1   13218   13221       3   13218   13224       3   13233   13236       1
   13230   13233       3   13230   13236       3   13245   13248       1   13242
   13245       3   13242   13248       3   13257   13260       1   13254   13257
       3   13254   13260       3   13269   13272       1   13266   13269       3
   13266   13272       3   13281   13284       1   13278   13281       3   13278
   13284       3   13293   13296       1   13290   13293       3   13290   13296
       3   13305   13308       1   13302   13305       3   13302   13308       3
   13317   13320       1   13314   13317       3   13314   13320       3   13329
   13332       1   13326   13329       3   13326   13332       3   13341   13344
       1   13338   13341       3   13338   13344       3   13353   13356       1
   13350   13353       3   13350   13356       3   13365   13368       1   13362
   13365       3   13362   13368       3   13377   13380       1   13374   13377
       3   13374   13380       3   13389   13392       1   13386   13389       3
   13386   13392       3   13401   13404       1   13398   13401       3   13398
   13404       3   13413   13416       1   13410   13413       3   13410   13416
       3   13425   13428       1   13422   13425       3   13422   13428       3
   13437   13440       1   13434   13437       3   13434   13440       3   13449
   13452       1   13446   13449       3   13446   13452       3   13461   13464
       1   13458   13461       3   13458   13464       3   13473   13476       1
   13470   13473       3   13470   13476       3   13485   13488       1   13482
   13485       3   13482   13488       3   13497   13500       1   13494   13497
       3   13494   13500       3   13509   13512       1   13506   13509       3
   13506   13512       3   13521   13524       1   13518   13521       3   13518
   13524       3   13533   13536       1   13530   13533       3   13530   13536
       3   13545   13548       1   13542   13545       3   13542   13548       3
   13557   13560       1   13554   13557       3   13554   13560       3   13569
   13572       1   13566   13569       3   13566   13572       3   13581   13584
       1   13578   13581       3   13578   13584       3   13593   13596       1
   13590   13593       3   13590   13596       3   13605   13608       1   13602
   13605       3   13602   13608       3   13617   13620       1   13614   13617
       3   13614   13620       3   13629   13632       1   13626   13629       3
   13626   13632       3   13641   13644       1   13638   13641       3   13638
   13644       3   13653   13656       1   13650   13653       3   13650   13656
       3   13665   13668       1   13662   13665       3   13662   13668       3
   13677   13680       1   13674   13677       3   13674   13680       3   13689
   13692       1   13686   13689       3   13686   13692       3   13701   13704
       1   13698   13701       3   13698   13704       3   13713   13716       1
   13710   13713       3   13710   13716       3   13725   13728       1   13722
   13725       3   13722   13728       3   13737   13740       1   13734   13737
       3   13734   13740       3   13749   13752       1   13746   13749       3
   13746   13752       3   13761   13764       1   13758   13761       3   13758
   13764       3   13773   13776       1   13770   13773       3   13770   13776
       3   13785   13788       1   13782   13785       3   13782   13788       3
   13797   13800       1   13794   13797       3   13794   13800       3   13809
   13812       1   13806   13809       3   13806   13812       3   13821   13824
       1   13818   13821       3   13818   13824       3   13833   13836       1
   13830   13833       3   13830   13836       3   13845   13848       1   13842
   13845       3   13842   13848       3   13857   13860       1   13854   13857
       3   13854   13860       3   13869   13872       1   13866   13869       3
   13866   13872       3   13881   13884       1   13878   13881       3   13878
   13884       3   13893   13896       1   13890   13893       3   13890   13896
       3   13905   13908       1   13902   13905       3   13902   13908       3
   13917   13920       1   13914   13917       3   13914   13920       3   13929
   13932       1   13926   13929       3   13926   13932       3   13941   13944
       1   13938   13941       3   13938   13944       3   13953   13956       1
   13950   13953       3   13950   13956       3   13965   13968       1   13962
   13965       3   13962   13968       3   13977   13980       1   13974   13977
       3   13974   13980       3   13989   13992       1   13986   13989       3
   13986   13992       3   14001   14004       1   13998   14001       3   13998
   14004       3   14013   14016       1   14010   14013       3   14010   14016
       3   14025   14028       1   14022   14025       3   14022   14028       3
   14037   14040       1   14034   14037       3   14034   14040       3   14049
   14052       1   14046   14049       3   14046   14052       3   14061   14064
       1   14058   14061       3   14058   14064       3   14073   14076       1
   14070   14073       3   14070   14076       3   14085   14088       1   14082
   14085       3   14082   14088       3   14097   14100       1   14094   14097
       3   14094   14100       3   14109   14112       1   14106   14109       3
   14106   14112       3   14121   14124       1   14118   14121       3   14118
   14124       3   14133   14136       1   14130   14133       3   14130   14136
       3   14145   14148       1   14142   14145       3   14142   14148       3
   14157   14160       1   14154   14157       3   14154   14160       3   14169
   14172       1   14166   14169       3   14166   14172       3   14181   14184
       1   14178   14181       3   14178   14184       3   14193   14196       1
   14190   14193       3   14190   14196       3   14205   14208       1   14202
   14205       3   14202   14208       3   14217   14220       1   14214   14217
       3   14214   14220       3   14229   14232       1   14226   14229       3
   14226   14232       3   14241   14244       1   14238   14241       3   14238
   14244       3   14253   14256       1   14250   14253       3   14250   14256
       3   14265   14268       1   14262   14265       3   14262   14268       3
   14277   14280       1   14274   14277       3   14274   14280       3   14289
   14292       1   14286   14289       3   14286   14292       3   14301   14304
       1   14298   14301       3   14298   14304       3   14313   14316       1
   14310   14313       3   14310   14316       3   14325   14328       1   14322
   14325       3   14322   14328       3   14337   14340       1   14334   14337
       3   14334   14340       3   14349   14352       1   14346   14349       3
   14346   14352       3   14361   14364       1   14358   14361       3   14358
   14364       3   14373   14376       1   14370   14373       3   14370   14376
       3   14385   14388       1   14382   14385       3   14382   14388       3
   14397   14400       1   14394   14397       3   14394   14400       3   14409
   14412       1   14406   14409       3   14406   14412       3   14421   14424
       1   14418   14421       3   14418   14424       3   14433   14436       1
   14430   14433       3   14430   14436       3   14445   14448       1   14442
   14445       3   14442   14448       3   14457   14460       1   14454   14457
       3   14454   14460       3   14469   14472       1   14466   14469       3
   14466   14472       3   14481   14484       1   14478   14481       3   14478
   14484       3   14493   14496       1   14490   14493       3   14490   14496
       3   14505   14508       1   14502   14505       3   14502   14508       3
   14517   14520       1   14514   14517       3   14514   14520       3   14529
   14532       1   14526   14529       3   14526   14532       3   14541   14544
       1   14538   14541       3   14538   14544       3   14553   14556       1
   14550   14553       3   14550   14556       3   14565   14568       1   14562
   14565       3   14562   14568       3   14577   14580       1   14574   14577
       3   14574   14580       3   14589   14592       1   14586   14589       3
   14586   14592       3   14601   14604       1   14598   14601       3   14598
   14604       3   14613   14616       1   14610   14613       3   14610   14616
       3   14625   14628       1   14622   14625       3   14622   14628       3
   14637   14640       1   14634   14637       3   14634   14640       3   14649
   14652       1   14646   14649       3   14646   14652       3   14661   14664
       1   14658   14661       3   14658   14664       3   14673   14676       1
   14670   14673       3   14670   14676       3   14685   14688       1   14682
   14685       3   14682   14688       3   14697   14700       1   14694   14697
       3   14694   14700       3   14709   14712       1   14706   14709       3
   14706   14712       3   14721   14724       1   14718   14721       3   14718
   14724       3   14733   14736       1   14730   14733       3   14730   14736
       3   14745   14748       1   14742   14745       3   14742   14748       3
   14757   14760       1   14754   14757       3   14754   14760       3   14769
   14772       1   14766   14769       3   14766   14772       3   14781   14784
       1   14778   14781       3   14778   14784       3   14793   14796       1
   14790   14793       3   14790   14796       3   14805   14808       1   14802
   14805       3   14802   14808       3   14817   14820       1   14814   14817
       3   14814   14820       3   14829   14832       1   14826   14829       3
   14826   14832       3   14841   14844       1   14838   14841       3   14838
   14844       3   14853   14856       1   14850   14853       3   14850   14856
       3   14865   14868       1   14862   14865       3   14862   14868       3
   14877   14880       1   14874   14877       3   14874   14880       3   14889
   14892       1   14886   14889       3   14886   14892       3   14901   14904
       1   14898   14901       3   14898   14904       3   14913   14916       1
   14910   14913       3   14910   14916       3   14925   14928       1   14922
   14925       3   14922   14928       3   14937   14940       1   14934   14937
       3   14934   14940       3   14949   14952       1   14946   14949       3
   14946   14952       3   14961   14964       1   14958   14961       3   14958
   14964       3   14973   14976       1   14970   14973       3   14970   14976
       3   14985   14988       1   14982   14985       3   14982   14988       3
   14997   15000       1   14994   14997       3   14994   15000       3   15009
   15012       1   15006   15009       3   15006   15012       3   15021   15024
       1   15018   15021       3   15018   15024       3   15033   15036       1
   15030   15033       3   15030   15036       3   15045   15048       1   15042
   15045       3   15042   15048       3   15057   15060       1   15054   15057
       3   15054   15060       3   15069   15072       1   15066   15069       3
   15066   15072       3   15081   15084       1   15078   15081       3   15078
   15084       3   15093   15096       1   15090   15093       3   15090   15096
       3   15105   15108       1   15102   15105       3   15102   15108       3
   15117   15120       1   15114   15117       3   15114   15120       3   15129
   15132       1   15126   15129       3   15126   15132       3   15141   15144
       1   15138   15141       3   15138   15144       3   15153   15156       1
   15150   15153       3   15150   15156       3   15165   15168       1   15162
   15165       3   15162   15168       3   15177   15180       1   15174   15177
       3   15174   15180       3   15189   15192       1   15186   15189       3
   15186   15192       3   15201   15204       1   15198   15201       3   15198
   15204       3   15213   15216       1   15210   15213       3   15210   15216
       3   15225   15228       1   15222   15225       3   15222   15228       3
   15237   15240       1   15234   15237       3   15234   15240       3   15249
   15252       1   15246   15249       3   15246   15252       3   15261   15264
       1   15258   15261       3   15258   15264       3   15273   15276       1
   15270   15273       3   15270   15276       3   15285   15288       1   15282
   15285       3   15282   15288       3   15297   15300       1   15294   15297
       3   15294   15300       3   15309   15312       1   15306   15309       3
   15306   15312       3   15321   15324       1   15318   15321       3   15318
   15324       3   15333   15336       1   15330   15333       3   15330   15336
       3   15345   15348       1   15342   15345       3   15342   15348       3
   15357   15360       1   15354   15357       3   15354   15360       3   15369
   15372       1   15366   15369       3   15366   15372       3   15381   15384
       1   15378   15381       3   15378   15384       3   15393   15396       1
   15390   15393       3   15390   15396       3   15405   15408       1   15402
   15405       3   15402   15408       3   15417   15420       1   15414   15417
       3   15414   15420       3   15429   15432       1   15426   15429       3
   15426   15432       3   15441   15444       1   15438   15441       3   15438
   15444       3   15453   15456       1   15450   15453       3   15450   15456
       3   15465   15468       1   15462   15465       3   15462   15468       3
   15477   15480       1   15474   15477       3   15474   15480       3   15489
   15492       1   15486   15489       3   15486   15492       3   15501   15504
       1   15498   15501       3   15498   15504       3   15513   15516       1
   15510   15513       3   15510   15516       3   15525   15528       1   15522
   15525       3   15522   15528       3   15537   15540       1   15534   15537
       3   15534   15540       3   15549   15552       1   15546   15549       3
   15546   15552       3   15561   15564       1   15558   15561       3   15558
   15564       3   15573   15576       1   15570   15573       3   15570   15576
       3   15585   15588       1   15582   15585       3   15582   15588       3
   15597   15600       1   15594   15597       3   15594   15600       3   15609
   15612       1   15606   15609       3   15606   15612       3   15621   15624
       1   15618   15621       3   15618   15624       3   15633   15636       1
   15630   15633       3   15630   15636       3   15645   15648       1   15642
   15645       3   15642   15648       3   15657   15660       1   15654   15657
       3   15654   15660       3   15669   15672       1   15666   15669       3
   15666   15672       3   15681   15684       1   15678   15681       3   15678
   15684       3   15693   15696       1   15690   15693       3   15690   15696
       3   15705   15708       1   15702   15705       3   15702   15708       3
   15717   15720       1   15714   15717       3   15714   15720       3   15729
   15732       1   15726   15729       3   15726   15732       3   15741   15744
       1   15738   15741       3   15738   15744       3   15753   15756       1
   15750   15753       3   15750   15756       3   15765   15768       1   15762
   15765       3   15762   15768       3   15777   15780       1   15774   15777
       3   15774   15780       3   15789   15792       1   15786   15789       3
   15786   15792       3   15801   15804       1   15798   15801       3   15798
   15804       3   15813   15816       1   15810   15813       3   15810   15816
       3   15825   15828       1   15822   15825       3   15822   15828       3
   15837   15840       1   15834   15837       3   15834   15840       3   15849
   15852       1   15846   15849       3   15846   15852       3   15861   15864
       1   15858   15861       3   15858   15864       3   15873   15876       1
   15870   15873       3   15870   15876       3   15885   15888       1   15882
   15885       3   15882   15888       3   15897   15900       1   15894   15897
       3   15894   15900       3   15909   15912       1   15906   15909       3
   15906   15912       3   15921   15924       1   15918   15921       3   15918
   15924       3   15933   15936       1   15930   15933       3   15930   15936
       3   15945   15948       1   15942   15945       3   15942   15948       3
   15957   15960       1   15954   15957       3   15954   15960       3   15969
   15972       1   15966   15969       3   15966   15972       3   15981   15984
       1   15978   15981       3   15978   15984       3   15993   15996       1
   15990   15993       3   15990   15996       3   16005   16008       1   16002
   16005       3   16002   16008       3   16017   16020       1   16014   16017
       3   16014   16020       3   16029   16032       1   16026   16029       3
   16026   16032       3   16041   16044       1   16038   16041       3   16038
   16044       3   16053   16056       1   16050   16053       3   16050   16056
       3   16065   16068       1   16062   16065       3   16062   16068       3
   16077   16080       1   16074   16077       3   16074   16080       3   16089
   16092       1   16086   16089       3   16086   16092       3   16101   16104
       1   16098   16101       3   16098   16104       3   16113   16116       1
   16110   16113       3   16110   16116       3   16125   16128       1   16122
   16125       3   16122   16128       3   16137   16140       1   16134   16137
       3   16134   16140       3   16149   16152       1   16146   16149       3
   16146   16152       3   16161   16164       1   16158   16161       3   16158
   16164       3   16173   16176       1   16170   16173       3   16170   16176
       3   16185   16188       1   16182   16185       3   16182   16188       3
   16197   16200       1   16194   16197       3   16194   16200       3   16209
   16212       1   16206   16209       3   16206   16212       3   16221   16224
       1   16218   16221       3   16218   16224       3   16233   16236       1
   16230   16233       3   16230   16236       3   16245   16248       1   16242
   16245       3   16242   16248       3   16257   16260       1   16254   16257
       3   16254   16260       3   16269   16272       1   16266   16269       3
   16266   16272       3   16281   16284       1   16278   16281       3   16278
   16284       3   16293   16296       1   16290   16293       3   16290   16296
       3   16305   16308       1   16302   16305       3   16302   16308       3
   16317   16320       1   16314   16317       3   16314   16320       3   16329
   16332       1   16326   16329       3   16326   16332       3   16341   16344
       1   16338   16341       3   16338   16344       3   16353   16356       1
   16350   16353       3   16350   16356       3   16365   16368       1   16362
   16365       3   16362   16368       3   16377   16380       1   16374   16377
       3   16374   16380       3   16389   16392       1   16386   16389       3
   16386   16392       3   16401   16404       1   16398   16401       3   16398
   16404       3   16413   16416       1   16410   16413       3   16410   16416
       3   16425   16428       1   16422   16425       3   16422   16428       3
   16437   16440       1   16434   16437       3   16434   16440       3   16449
   16452       1   16446   16449       3   16446   16452       3   16461   16464
       1   16458   16461       3   16458   16464       3   16473   16476       1
   16470   16473       3   16470   16476       3   16485   16488       1   16482
   16485       3   16482   16488       3   16497   16500       1   16494   16497
       3   16494   16500       3   16509   16512       1   16506   16509       3
   16506   16512       3   16521   16524       1   16518   16521       3   16518
   16524       3   16533   16536       1   16530   16533       3   16530   16536
       3   16545   16548       1   16542   16545       3   16542   16548       3
   16557   16560       1   16554   16557       3   16554   16560       3   16569
   16572       1   16566   16569       3   16566   16572       3   16581   16584
       1   16578   16581       3   16578   16584       3   16593   16596       1
   16590   16593       3   16590   16596       3   16605   16608       1   16602
   16605       3   16602   16608       3   16617   16620       1   16614   16617
       3   16614   16620       3   16629   16632       1   16626   16629       3
   16626   16632       3   16641   16644       1   16638   16641       3   16638
   16644       3   16653   16656       1   16650   16653       3   16650   16656
       3   16665   16668       1   16662   16665       3   16662   16668       3
   16677   16680       1   16674   16677       3   16674   16680       3   16689
   16692       1   16686   16689       3   16686   16692       3   16701   16704
       1   16698   16701       3   16698   16704       3   16713   16716       1
   16710   16713       3   16710   16716       3   16725   16728       1   16722
   16725       3   16722   16728       3   16737   16740       1   16734   16737
       3   16734   16740       3   16749   16752       1   16746   16749       3
   16746   16752       3   16761   16764       1   16758   16761       3   16758
   16764       3   16773   16776       1   16770   16773       3   16770   16776
       3   16785   16788       1   16782   16785       3   16782   16788       3
   16797   16800       1   16794   16797       3   16794   16800       3   16809
   16812       1   16806   16809       3   16806   16812       3   16821   16824
       1   16818   16821       3   16818   16824       3   16833   16836       1
   16830   16833       3   16830   16836       3   16845   16848       1   16842
   16845       3   16842   16848       3   16857   16860       1   16854   16857
       3   16854   16860       3   16869   16872       1   16866   16869       3
   16866   16872       3   16881   16884       1   16878   16881       3   16878
   16884       3   16893   16896       1   16890   16893       3   16890   16896
       3   16905   16908       1   16902   16905       3   16902   16908       3
   16917   16920       1   16914   16917       3   16914   16920       3   16929
   16932       1   16926   16929       3   16926   16932       3   16941   16944
       1   16938   16941       3   16938   16944       3   16953   16956       1
   16950   16953       3   16950   16956       3   16965   16968       1   16962
   16965       3   16962   16968       3   16977   16980       1   16974   16977
       3   16974   16980       3   16989   16992       1   16986   16989       3
   16986   16992       3   17001   17004       1   16998   17001       3   16998
   17004       3   17013   17016       1   17010   17013       3   17010   17016
       3   17025   17028       1   17022   17025       3   17022   17028       3
   17037   17040       1   17034   17037       3   17034   17040       3   17049
   17052       1   17046   17049       3   17046   17052       3   17061   17064
       1   17058   17061       3   17058   17064       3   17073   17076       1
   17070   17073       3   17070   17076       3   17085   17088       1   17082
   17085       3   17082   17088       3   17097   17100       1   17094   17097
       3   17094   17100       3   17109   17112       1   17106   17109       3
   17106   17112       3   17121   17124       1   17118   17121       3   17118
   17124       3   17133   17136       1   17130   17133       3   17130   17136
       3   17145   17148       1   17142   17145       3   17142   17148       3
   17157   17160       1   17154   17157       3   17154   17160       3   17169
   17172       1   17166   17169       3   17166   17172       3   17181   17184
       1   17178   17181       3   17178   17184       3   17193   17196       1
   17190   17193       3   17190   17196       3   17205   17208       1   17202
   17205       3   17202   17208       3   17217   17220       1   17214   17217
       3   17214   17220       3   17229   17232       1   17226   17229       3
   17226   17232       3   17241   17244       1   17238   17241       3   17238
   17244       3   17253   17256       1   17250   17253       3   17250   17256
       3   17265   17268       1   17262   17265       3   17262   17268       3
   17277   17280       1   17274   17277       3   17274   17280       3   17289
   17292       1   17286   17289       3   17286   17292       3   17301   17304
       1   17298   17301       3   17298   17304       3   17313   17316       1
   17310   17313       3   17310   17316       3   17325   17328       1   17322
   17325       3   17322   17328       3   17337   17340       1   17334   17337
       3   17334   17340       3   17349   17352       1   17346   17349       3
   17346   17352       3   17361   17364       1   17358   17361       3   17358
   17364       3   17373   17376       1   17370   17373       3   17370   17376
       3   17385   17388       1   17382   17385       3   17382   17388       3
   17397   17400       1   17394   17397       3   17394   17400       3   17409
   17412       1   17406   17409       3   17406   17412       3   17421   17424
       1   17418   17421       3   17418   17424       3   17433   17436       1
   17430   17433       3   17430   17436       3   17445   17448       1   17442
   17445       3   17442   17448       3   17457   17460       1   17454   17457
       3   17454   17460       3   17469   17472       1   17466   17469       3
   17466   17472       3   17481   17484       1   17478   17481       3   17478
   17484       3   17493   17496       1   17490   17493       3   17490   17496
       3   17505   17508       1   17502   17505       3   17502   17508       3
   17517   17520       1   17514   17517       3   17514   17520       3   17529
   17532       1   17526   17529       3   17526   17532       3   17541   17544
       1   17538   17541       3   17538   17544       3   17553   17556       1
   17550   17553       3   17550   17556       3   17565   17568       1   17562
   17565       3   17562   17568       3   17577   17580       1   17574   17577
       3   17574   17580       3   17589   17592       1   17586   17589       3
   17586   17592       3   17601   17604       1   17598   17601       3   17598
   17604       3   17613   17616       1   17610   17613       3   17610   17616
       3   17625   17628       1   17622   17625       3   17622   17628       3
   17637   17640       1   17634   17637       3   17634   17640       3   17649
   17652       1   17646   17649       3   17646   17652       3   17661   17664
       1   17658   17661       3   17658   17664       3   17673   17676       1
   17670   17673       3   17670   17676       3   17685   17688       1   17682
   17685       3   17682   17688       3   17697   17700       1   17694   17697
       3   17694   17700       3   17709   17712       1   17706   17709       3
   17706   17712       3   17721   17724       1   17718   17721       3   17718
   17724       3   17733   17736       1   17730   17733       3   17730   17736
       3   17745   17748       1   17742   17745       3   17742   17748       3
   17757   17760       1   17754   17757       3   17754   17760       3   17769
   17772       1   17766   17769       3   17766   17772       3   17781   17784
       1   17778   17781       3   17778   17784       3   17793   17796       1
   17790   17793       3   17790   17796       3   17805   17808       1   17802
   17805       3   17802   17808       3   17817   17820       1   17814   17817
       3   17814   17820       3   17829   17832       1   17826   17829       3
   17826   17832       3   17841   17844       1   17838   17841       3   17838
   17844       3   17853   17856       1   17850   17853       3   17850   17856
       3   17865   17868       1   17862   17865       3   17862   17868       3
   17877   17880       1   17874   17877       3   17874   17880       3   17889
   17892       1   17886   17889       3   17886   17892       3   17901   17904
       1   17898   17901       3   17898   17904       3   17913   17916       1
   17910   17913       3   17910   17916       3   17925   17928       1   17922
   17925       3   17922   17928       3   17937   17940       1   17934   17937
       3   17934   17940       3   17949   17952       1   17946   17949       3
   17946   17952       3   17961   17964       1   17958   17961       3   17958
   17964       3   17973   17976       1   17970   17973       3   17970   17976
       3   17985   17988       1   17982   17985       3   17982   17988       3
   17997   18000       1   17994   17997       3   17994   18000       3   18009
   18012       1   18006   18009       3   18006   18012       3   18021   18024
       1   18018   18021       3   18018   18024       3   18033   18036       1
   18030   18033       3   18030   18036       3   18045   18048       1   18042
   18045       3   18042   18048       3   18057   18060       1   18054   18057
       3   18054   18060       3   18069   18072       1   18066   18069       3
   18066   18072       3   18081   18084       1   18078   18081       3   18078
   18084       3   18093   18096       1   18090   18093       3   18090   18096
       3   18105   18108       1   18102   18105       3   18102   18108       3
   18117   18120       1   18114   18117       3   18114   18120       3   18129
   18132       1   18126   18129       3   18126   18132       3   18141   18144
       1   18138   18141       3   18138   18144       3   18153   18156       1
   18150   18153       3   18150   18156       3   18165   18168       1   18162
   18165       3   18162   18168       3   18177   18180       1   18174   18177
       3   18174   18180       3   18189   18192       1   18186   18189       3
   18186   18192       3   18201   18204       1   18198   18201       3   18198
   18204       3   18213   18216       1   18210   18213       3   18210   18216
       3   18225   18228       1   18222   18225       3   18222   18228       3
   18237   18240       1   18234   18237       3   18234   18240       3   18249
   18252       1   18246   18249       3   18246   18252       3   18261   18264
       1   18258   18261       3   18258   18264       3   18273   18276       1
   18270   18273       3   18270   18276       3   18285   18288       1   18282
   18285       3   18282   18288       3   18297   18300       1   18294   18297
       3   18294   18300       3   18309   18312       1   18306   18309       3
   18306   18312       3   18321   18324       1   18318   18321       3   18318
   18324       3   18333   18336       1   18330   18333       3   18330   18336
       3   18345   18348       1   18342   18345       3   18342   18348       3
   18357   18360       1   18354   18357       3   18354   18360       3   18369
   18372       1   18366   18369       3   18366   18372       3   18381   18384
       1   18378   18381       3   18378   18384       3   18393   18396       1
   18390   18393       3   18390   18396       3   18405   18408       1   18402
   18405       3   18402   18408       3   18417   18420       1   18414   18417
       3   18414   18420       3   18429   18432       1   18426   18429       3
   18426   18432       3   18441   18444       1   18438   18441       3   18438
   18444       3   18453   18456       1   18450   18453       3   18450   18456
       3   18465   18468       1   18462   18465       3   18462   18468       3
   18477   18480       1   18474   18477       3   18474   18480       3   18489
   18492       1   18486   18489       3   18486   18492       3   18501   18504
       1   18498   18501       3   18498   18504       3   18513   18516       1
   18510   18513       3   18510   18516       3   18525   18528       1   18522
   18525       3   18522   18528       3   18537   18540       1   18534   18537
       3   18534   18540       3   18549   18552       1   18546   18549       3
   18546   18552       3   18561   18564       1   18558   18561       3   18558
   18564       3   18573   18576       1   18570   18573       3   18570   18576
       3   18585   18588       1   18582   18585       3   18582   18588       3
   18597   18600       1   18594   18597       3   18594   18600       3   18609
   18612       1   18606   18609       3   18606   18612       3   18621   18624
       1   18618   18621       3   18618   18624       3   18633   18636       1
   18630   18633       3   18630   18636       3   18645   18648       1   18642
   18645       3   18642   18648       3   18657   18660       1   18654   18657
       3   18654   18660       3   18669   18672       1   18666   18669       3
   18666   18672       3   18681   18684       1   18678   18681       3   18678
   18684       3   18693   18696       1   18690   18693       3   18690   18696
       3   18705   18708       1   18702   18705       3   18702   18708       3
   18717   18720       1   18714   18717       3   18714   18720       3   18729
   18732       1   18726   18729       3   18726   18732       3   18741   18744
       1   18738   18741       3   18738   18744       3   18753   18756       1
   18750   18753       3   18750   18756       3   18765   18768       1   18762
   18765       3   18762   18768       3   18777   18780       1   18774   18777
       3   18774   18780       3   18789   18792       1   18786   18789       3
   18786   18792       3   18801   18804       1   18798   18801       3   18798
   18804       3   18813   18816       1   18810   18813       3   18810   18816
       3   18825   18828       1   18822   18825       3   18822   18828       3
   18837   18840       1   18834   18837       3   18834   18840       3   18849
   18852       1   18846   18849       3   18846   18852       3   18861   18864
       1   18858   18861       3   18858   18864       3   18873   18876       1
   18870   18873       3   18870   18876       3   18885   18888       1   18882
   18885       3   18882   18888       3   18897   18900       1   18894   18897
       3   18894   18900       3   18909   18912       1   18906   18909       3
   18906   18912       3   18921   18924       1   18918   18921       3   18918
   18924       3   18933   18936       1   18930   18933       3   18930   18936
       3   18945   18948       1   18942   18945       3   18942   18948       3
   18957   18960       1   18954   18957       3   18954   18960       3   18969
   18972       1   18966   18969       3   18966   18972       3   18981   18984
       1   18978   18981       3   18978   18984       3   18993   18996       1
   18990   18993       3   18990   18996       3   19005   19008       1   19002
   19005       3   19002   19008       3   19017   19020       1   19014   19017
       3   19014   19020       3   19029   19032       1   19026   19029       3
   19026   19032       3   19041   19044       1   19038   19041       3   19038
   19044       3   19053   19056       1   19050   19053       3   19050   19056
       3   19065   19068       1   19062   19065       3   19062   19068       3
   19077   19080       1   19074   19077       3   19074   19080       3   19089
   19092       1   19086   19089       3   19086   19092       3   19101   19104
       1   19098   19101       3   19098   19104       3   19113   19116       1
   19110   19113       3   19110   19116       3   19125   19128       1   19122
   19125       3   19122   19128       3   19137   19140       1   19134   19137
       3   19134   19140       3   19149   19152       1   19146   19149       3
   19146   19152       3   19161   19164       1   19158   19161       3   19158
   19164       3   19173   19176       1   19170   19173       3   19170   19176
       3   19185   19188       1   19182   19185       3   19182   19188       3
   19197   19200       1   19194   19197       3   19194   19200       3   19209
   19212       1   19206   19209       3   19206   19212       3   19221   19224
       1   19218   19221       3   19218   19224       3   19233   19236       1
   19230   19233       3   19230   19236       3   19245   19248       1   19242
   19245       3   19242   19248       3   19257   19260       1   19254   19257
       3   19254   19260       3   19269   19272       1   19266   19269       3
   19266   19272       3   19281   19284       1   19278   19281       3   19278
   19284       3   19293   19296       1   19290   19293       3   19290   19296
       3   19305   19308       1   19302   19305       3   19302   19308       3
   19317   19320       1   19314   19317       3   19314   19320       3   19329
   19332       1   19326   19329       3   19326   19332       3   19341   19344
       1   19338   19341       3   19338   19344       3   19353   19356       1
   19350   19353       3   19350   19356       3   19365   19368       1   19362
   19365       3   19362   19368       3   19377   19380       1   19374   19377
       3   19374   19380       3   19389   19392       1   19386   19389       3
   19386   19392       3   19401   19404       1   19398   19401       3   19398
   19404       3   19413   19416       1   19410   19413       3   19410   19416
       3   19425   19428       1   19422   19425       3   19422   19428       3
   19437   19440       1   19434   19437       3   19434   19440       3   19449
   19452       1   19446   19449       3   19446   19452       3   19461   19464
       1   19458   19461       3   19458   19464       3   19473   19476       1
   19470   19473       3   19470   19476       3   19485   19488       1   19482
   19485       3   19482   19488       3   19497   19500       1   19494   19497
       3   19494   19500       3   19509   19512       1   19506   19509       3
   19506   19512       3   19521   19524       1   19518   19521       3   19518
   19524       3   19533   19536       1   19530   19533       3   19530   19536
       3   19545   19548       1   19542   19545       3   19542   19548       3
   19557   19560       1   19554   19557       3   19554   19560       3   19569
   19572       1   19566   19569       3   19566   19572       3   19581   19584
       1   19578   19581       3   19578   19584       3   19593   19596       1
   19590   19593       3   19590   19596       3   19605   19608       1   19602
   19605       3   19602   19608       3   19617   19620       1   19614   19617
       3   19614   19620       3   19629   19632       1   19626   19629       3
   19626   19632       3   19641   19644       1   19638   19641       3   19638
   19644       3   19653   19656       1   19650   19653       3   19650   19656
       3   19665   19668       1   19662   19665       3   19662   19668       3
   19677   19680       1   19674   19677       3   19674   19680       3   19689
   19692       1   19686   19689       3   19686   19692       3   19701   19704
       1   19698   19701       3   19698   19704       3   19713   19716       1
   19710   19713       3   19710   19716       3   19725   19728       1   19722
   19725       3   19722   19728       3   19737   19740       1   19734   19737
       3   19734   19740       3   19749   19752       1   19746   19749       3
   19746   19752       3   19761   19764       1   19758   19761       3   19758
   19764       3   19773   19776       1   19770   19773       3   19770   19776
       3   19785   19788       1   19782   19785       3   19782   19788       3
   19797   19800       1   19794   19797       3   19794   19800       3   19809
   19812       1   19806   19809       3   19806   19812       3   19821   19824
       1   19818   19821       3   19818   19824       3   19833   19836       1
   19830   19833       3   19830   19836       3   19845   19848       1   19842
   19845       3   19842   19848       3   19857   19860       1   19854   19857
       3   19854   19860       3   19869   19872       1   19866   19869       3
   19866   19872       3   19881   19884       1   19878   19881       3   19878
   19884       3   19893   19896       1   19890   19893       3   19890   19896
       3   19905   19908       1   19902   19905       3   19902   19908       3
   19917   19920       1   19914   19917       3   19914   19920       3   19929
   19932       1   19926   19929       3   19926   19932       3   19941   19944
       1   19938   19941       3   19938   19944       3   19953   19956       1
   19950   19953       3   19950   19956       3   19965   19968       1   19962
   19965       3   19962   19968       3   19977   19980       1   19974   19977
       3   19974   19980       3   19989   19992       1   19986   19989       3
   19986   19992       3   20001   20004       1   19998   20001       3   19998
   20004       3   20013   20016       1   20010   20013       3   20010   20016
       3   20025   20028       1   20022   20025       3   20022   20028       3
   20037   20040       1   20034   20037       3   20034   20040       3   20049
   20052       1   20046   20049       3   20046   20052       3   20061   20064
       1   20058   20061       3   20058   20064       3   20073   20076       1
   20070   20073       3   20070   20076       3   20085   20088       1   20082
   20085       3   20082   20088       3   20097   20100       1   20094   20097
       3   20094   20100       3   20109   20112       1   20106   20109       3
   20106   20112       3   20121   20124       1   20118   20121       3   20118
   20124       3   20133   20136       1   20130   20133       3   20130   20136
       3   20145   20148       1   20142   20145       3   20142   20148       3
   20157   20160       1   20154   20157       3   20154   20160       3   20169
   20172       1   20166   20169       3   20166   20172       3   20181   20184
       1   20178   20181       3   20178   20184       3   20193   20196       1
   20190   20193       3   20190   20196       3   20205   20208       1   20202
   20205       3   20202   20208       3   20217   20220       1   20214   20217
       3   20214   20220       3   20229   20232       1   20226   20229       3
   20226   20232       3   20241   20244       1   20238   20241       3   20238
   20244       3   20253   20256       1   20250   20253       3   20250   20256
       3   20265   20268       1   20262   20265       3   20262   20268       3
   20277   20280       1   20274   20277       3   20274   20280       3   20289
   20292       1   20286   20289       3   20286   20292       3   20301   20304
       1   20298   20301       3   20298   20304       3   20313   20316       1
   20310   20313       3   20310   20316       3   20325   20328       1   20322
   20325       3   20322   20328       3   20337   20340       1   20334   20337
       3   20334   20340       3   20349   20352       1   20346   20349       3
   20346   20352       3   20361   20364       1   20358   20361       3   20358
   20364       3   20373   20376       1   20370   20373       3   20370   20376
       3   20385   20388       1   20382   20385       3   20382   20388       3
   20397   20400       1   20394   20397       3   20394   20400       3   20409
   20412       1   20406   20409       3   20406   20412       3   20421   20424
       1   20418   20421       3   20418   20424       3   20433   20436       1
   20430   20433       3   20430   20436       3   20445   20448       1   20442
   20445       3   20442   20448       3   20457   20460       1   20454   20457
       3   20454   20460       3   20469   20472       1   20466   20469       3
   20466   20472       3   20481   20484       1   20478   20481       3   20478
   20484       3   20493   20496       1   20490   20493       3   20490   20496
       3   20505   20508       1   20502   20505       3   20502   20508       3
   20517   20520       1   20514   20517       3   20514   20520       3   20529
   20532       1   20526   20529       3   20526   20532       3   20541   20544
       1   20538   20541       3   20538   20544       3   20553   20556       1
   20550   20553       3   20550   20556       3   20565   20568       1   20562
   20565       3   20562   20568       3   20577   20580       1   20574   20577
       3   20574   20580       3   20589   20592       1   20586   20589       3
   20586   20592       3   20601   20604       1   20598   20601       3   20598
   20604       3   20613   20616       1   20610   20613       3   20610   20616
       3   20625   20628       1   20622   20625       3   20622   20628       3
   20637   20640       1   20634   20637       3   20634   20640       3   20649
   20652       1   20646   20649       3   20646   20652       3   20661   20664
       1   20658   20661       3   20658   20664       3   20673   20676       1
   20670   20673       3   20670   20676       3   20685   20688       1   20682
   20685       3   20682   20688       3   20697   20700       1   20694   20697
       3   20694   20700       3   20709   20712       1   20706   20709       3
   20706   20712       3   20721   20724       1   20718   20721       3   20718
   20724       3   20733   20736       1   20730   20733       3   20730   20736
       3   20745   20748       1   20742   20745       3   20742   20748       3
   20757   20760       1   20754   20757       3   20754   20760       3   20769
   20772       1   20766   20769       3   20766   20772       3   20781   20784
       1   20778   20781       3   20778   20784       3   20793   20796       1
   20790   20793       3   20790   20796       3   20805   20808       1   20802
   20805       3   20802   20808       3   20817   20820       1   20814   20817
       3   20814   20820       3   20829   20832       1   20826   20829       3
   20826   20832       3   20841   20844       1   20838   20841       3   20838
   20844       3   20853   20856       1   20850   20853       3   20850   20856
       3   20865   20868       1   20862   20865       3   20862   20868       3
   20877   20880       1   20874   20877       3   20874   20880       3   20889
   20892       1   20886   20889       3   20886   20892       3   20901   20904
       1   20898   20901       3   20898   20904       3   20913   20916       1
   20910   20913       3   20910   20916       3   20925   20928       1   20922
   20925       3   20922   20928       3   20937   20940       1   20934   20937
       3   20934   20940       3   20949   20952       1   20946   20949       3
   20946   20952       3   20961   20964       1   20958   20961       3   20958
   20964       3   20973   20976       1   20970   20973       3   20970   20976
       3   20985   20988       1   20982   20985       3   20982   20988       3
   20997   21000       1   20994   20997       3   20994   21000       3   21009
   21012       1   21006   21009       3   21006   21012       3   21021   21024
       1   21018   21021       3   21018   21024       3   21033   21036       1
   21030   21033       3   21030   21036       3   21045   21048       1   21042
   21045       3   21042   21048       3   21057   21060       1   21054   21057
       3   21054   21060       3   21069   21072       1   21066   21069       3
   21066   21072       3   21081   21084       1   21078   21081       3   21078
   21084       3   21093   21096       1   21090   21093       3   21090   21096
       3   21105   21108       1   21102   21105       3   21102   21108       3
   21117   21120       1   21114   21117       3   21114   21120       3   21129
   21132       1   21126   21129       3   21126   21132       3   21141   21144
       1   21138   21141       3   21138   21144       3   21153   21156       1
   21150   21153       3   21150   21156       3   21165   21168       1   21162
   21165       3   21162   21168       3   21177   21180       1   21174   21177
       3   21174   21180       3   21189   21192       1   21186   21189       3
   21186   21192       3   21201   21204       1   21198   21201       3   21198
   21204       3   21213   21216       1   21210   21213       3   21210   21216
       3   21225   21228       1   21222   21225       3   21222   21228       3
   21237   21240       1   21234   21237       3   21234   21240       3   21249
   21252       1   21246   21249       3   21246   21252       3   21261   21264
       1   21258   21261       3   21258   21264       3   21273   21276       1
   21270   21273       3   21270   21276       3   21285   21288       1   21282
   21285       3   21282   21288       3   21297   21300       1   21294   21297
       3   21294   21300       3   21309   21312       1   21306   21309       3
   21306   21312       3   21321   21324       1   21318   21321       3   21318
   21324       3   21333   21336       1   21330   21333       3   21330   21336
       3   21345   21348       1   21342   21345       3   21342   21348       3
   21357   21360       1   21354   21357       3   21354   21360       3   21369
   21372       1   21366   21369       3   21366   21372       3   21381   21384
       1   21378   21381       3   21378   21384       3   21393   21396       1
   21390   21393       3   21390   21396       3   21405   21408       1   21402
   21405       3   21402   21408       3   21417   21420       1   21414   21417
       3   21414   21420       3   21429   21432       1   21426   21429       3
   21426   21432       3   21441   21444       1   21438   21441       3   21438
   21444       3   21453   21456       1   21450   21453       3   21450   21456
       3   21465   21468       1   21462   21465       3   21462   21468       3
   21477   21480       1   21474   21477       3   21474   21480       3   21489
   21492       1   21486   21489       3   21486   21492       3   21501   21504
       1   21498   21501       3   21498   21504       3   21513   21516       1
   21510   21513       3   21510   21516       3   21525   21528       1   21522
   21525       3   21522   21528       3   21537   21540       1   21534   21537
       3   21534   21540       3   21549   21552       1   21546   21549       3
   21546   21552       3   21561   21564       1   21558   21561       3   21558
   21564       3   21573   21576       1   21570   21573       3   21570   21576
       3   21585   21588       1   21582   21585       3   21582   21588       3
   21597   21600       1   21594   21597       3   21594   21600       3   21609
   21612       1   21606   21609       3   21606   21612       3   21621   21624
       1   21618   21621       3   21618   21624       3   21633   21636       1
   21630   21633       3   21630   21636       3   21645   21648       1   21642
   21645       3   21642   21648       3   21657   21660       1   21654   21657
       3   21654   21660       3   21669   21672       1   21666   21669       3
   21666   21672       3   21681   21684       1   21678   21681       3   21678
   21684       3   21693   21696       1   21690   21693       3   21690   21696
       3   21705   21708       1   21702   21705       3   21702   21708       3
   21717   21720       1   21714   21717       3   21714   21720       3   21729
   21732       1   21726   21729       3   21726   21732       3   21741   21744
       1   21738   21741       3   21738   21744       3   21753   21756       1
   21750   21753       3   21750   21756       3   21765   21768       1   21762
   21765       3   21762   21768       3   21777   21780       1   21774   21777
       3   21774   21780       3   21789   21792       1   21786   21789       3
   21786   21792       3   21801   21804       1   21798   21801       3   21798
   21804       3   21813   21816       1   21810   21813       3   21810   21816
       3   21825   21828       1   21822   21825       3   21822   21828       3
   21837   21840       1   21834   21837       3   21834   21840       3   21849
   21852       1   21846   21849       3   21846   21852       3   21861   21864
       1   21858   21861       3   21858   21864       3   21873   21876       1
   21870   21873       3   21870   21876       3   21885   21888       1   21882
   21885       3   21882   21888       3   21897   21900       1   21894   21897
       3   21894   21900       3   21909   21912       1   21906   21909       3
   21906   21912       3   21921   21924       1   21918   21921       3   21918
   21924       3   21933   21936       1   21930   21933       3   21930   21936
       3   21945   21948       1   21942   21945       3   21942   21948       3
   21957   21960       1   21954   21957       3   21954   21960       3   21969
   21972       1   21966   21969       3   21966   21972       3   21981   21984
       1   21978   21981       3   21978   21984       3   21993   21996       1
   21990   21993       3   21990   21996       3   22005   22008       1   22002
   22005       3   22002   22008       3   22017   22020       1   22014   22017
       3   22014   22020       3   22029   22032       1   22026   22029       3
   22026   22032       3   22041   22044       1   22038   22041       3   22038
   22044       3   22053   22056       1   22050   22053       3   22050   22056
       3   22065   22068       1   22062   22065       3   22062   22068       3
   22077   22080       1   22074   22077       3   22074   22080       3   22089
   22092       1   22086   22089       3   22086   22092       3   22101   22104
       1   22098   22101       3   22098   22104       3   22113   22116       1
   22110   22113       3   22110   22116       3   22125   22128       1   22122
   22125       3   22122   22128       3   22137   22140       1   22134   22137
       3   22134   22140       3   22149   22152       1   22146   22149       3
   22146   22152       3   22161   22164       1   22158   22161       3   22158
   22164       3   22173   22176       1   22170   22173       3   22170   22176
       3   22185   22188       1   22182   22185       3   22182   22188       3
   22197   22200       1   22194   22197       3   22194   22200       3   22209
   22212       1   22206   22209       3   22206   22212       3   22221   22224
       1   22218   22221       3   22218   22224       3   22233   22236       1
   22230   22233       3   22230   22236       3   22245   22248       1   22242
   22245       3   22242   22248       3   22257   22260       1   22254   22257
       3   22254   22260       3   22269   22272       1   22266   22269       3
   22266   22272       3   22281   22284       1   22278   22281       3   22278
   22284       3   22293   22296       1   22290   22293       3   22290   22296
       3   22305   22308       1   22302   22305       3   22302   22308       3
   22317   22320       1   22314   22317       3   22314   22320       3   22329
   22332       1   22326   22329       3   22326   22332       3   22341   22344
       1   22338   22341       3   22338   22344       3   22353   22356       1
   22350   22353       3   22350   22356       3   22365   22368       1   22362
   22365       3   22362   22368       3   22377   22380       1   22374   22377
       3   22374   22380       3   22389   22392       1   22386   22389       3
   22386   22392       3   22401   22404       1   22398   22401       3   22398
   22404       3   22413   22416       1   22410   22413       3   22410   22416
       3   22425   22428       1   22422   22425       3   22422   22428       3
   22437   22440       1   22434   22437       3   22434   22440       3   22449
   22452       1   22446   22449       3   22446   22452       3   22461   22464
       1   22458   22461       3   22458   22464       3   22473   22476       1
   22470   22473       3   22470   22476       3   22485   22488       1   22482
   22485       3   22482   22488       3   22497   22500       1   22494   22497
       3   22494   22500       3   22509   22512       1   22506   22509       3
   22506   22512       3   22521   22524       1   22518   22521       3   22518
   22524       3   22533   22536       1   22530   22533       3   22530   22536
       3   22545   22548       1   22542   22545       3   22542   22548       3
   22557   22560       1   22554   22557       3   22554   22560       3   22569
   22572       1   22566   22569       3   22566   22572       3   22581   22584
       1   22578   22581       3   22578   22584       3   22593   22596       1
   22590   22593       3   22590   22596       3   22605   22608       1   22602
   22605       3   22602   22608       3   22617   22620       1   22614   22617
       3   22614   22620       3   22629   22632       1   22626   22629       3
   22626   22632       3   22641   22644       1   22638   22641       3   22638
   22644       3   22653   22656       1   22650   22653       3   22650   22656
       3   22665   22668       1   22662   22665       3   22662   22668       3
   22677   22680       1   22674   22677       3   22674   22680       3   22689
   22692       1   22686   22689       3   22686   22692       3   22701   22704
       1   22698   22701       3   22698   22704       3   22713   22716       1
   22710   22713       3   22710   22716       3   22725   22728       1   22722
   22725       3   22722   22728       3   22737   22740       1   22734   22737
       3   22734   22740       3   22749   22752       1   22746   22749       3
   22746   22752       3   22761   22764       1   22758   22761       3   22758
   22764       3   22773   22776       1   22770   22773       3   22770   22776
       3   22785   22788       1   22782   22785       3   22782   22788       3
   22797   22800       1   22794   22797       3   22794   22800       3   22809
   22812       1   22806   22809       3   22806   22812       3   22821   22824
       1   22818   22821       3   22818   22824       3   22833   22836       1
   22830   22833       3   22830   22836       3   22845   22848       1   22842
   22845       3   22842   22848       3   22857   22860       1   22854   22857
       3   22854   22860       3   22869   22872       1   22866   22869       3
   22866   22872       3   22881   22884       1   22878   22881       3   22878
   22884       3   22893   22896       1   22890   22893       3   22890   22896
       3   22905   22908       1   22902   22905       3   22902   22908       3
   22917   22920       1   22914   22917       3   22914   22920       3   22929
   22932       1   22926   22929       3   22926   22932       3   22941   22944
       1   22938   22941       3   22938   22944       3   22953   22956       1
   22950   22953       3   22950   22956       3   22965   22968       1   22962
   22965       3   22962   22968       3   22977   22980       1   22974   22977
       3   22974   22980       3   22989   22992       1   22986   22989       3
   22986   22992       3   23001   23004       1   22998   23001       3   22998
   23004       3   23013   23016       1   23010   23013       3   23010   23016
       3   23025   23028       1   23022   23025       3   23022   23028       3
   23037   23040       1   23034   23037       3   23034   23040       3   23049
   23052       1   23046   23049       3   23046   23052       3   23061   23064
       1   23058   23061       3   23058   23064       3   23073   23076       1
   23070   23073       3   23070   23076       3   23085   23088       1   23082
   23085       3   23082   23088       3   23097   23100       1   23094   23097
       3   23094   23100       3   23109   23112       1   23106   23109       3
   23106   23112       3   23121   23124       1   23118   23121       3   23118
   23124       3   23133   23136       1   23130   23133       3   23130   23136
       3   23145   23148       1   23142   23145       3   23142   23148       3
   23157   23160       1   23154   23157       3   23154   23160       3   23169
   23172       1   23166   23169       3   23166   23172       3   23181   23184
       1   23178   23181       3   23178   23184       3   23193   23196       1
   23190   23193       3   23190   23196       3   23205   23208       1   23202
   23205       3   23202   23208       3   23217   23220       1   23214   23217
       3   23214   23220       3   23229   23232       1   23226   23229       3
   23226   23232       3   23241   23244       1   23238   23241       3   23238
   23244       3   23253   23256       1   23250   23253       3   23250   23256
       3   23265   23268       1   23262   23265       3   23262   23268       3
   23277   23280       1   23274   23277       3   23274   23280       3   23289
   23292       1   23286   23289       3   23286   23292       3   23301   23304
       1   23298   23301       3   23298   23304       3   23313   23316       1
   23310   23313       3   23310   23316       3   23325   23328       1   23322
   23325       3   23322   23328       3   23337   23340       1   23334   23337
       3   23334   23340       3   23349   23352       1   23346   23349       3
   23346   23352       3   23361   23364       1   23358   23361       3   23358
   23364       3   23373   23376       1   23370   23373       3   23370   23376
       3   23385   23388       1   23382   23385       3   23382   23388       3
   23397   23400       1   23394   23397       3   23394   23400       3   23409
   23412       1   23406   23409       3   23406   23412       3   23421   23424
       1   23418   23421       3   23418   23424       3   23433   23436       1
   23430   23433       3   23430   23436       3   23445   23448       1   23442
   23445       3   23442   23448       3   23457   23460       1   23454   23457
       3   23454   23460       3   23469   23472       1   23466   23469       3
   23466   23472       3   23481   23484       1   23478   23481       3   23478
   23484       3   23493   23496       1   23490   23493       3   23490   23496
       3   23505   23508       1   23502   23505       3   23502   23508       3
   23517   23520       1   23514   23517       3   23514   23520       3   23529
   23532       1   23526   23529       3   23526   23532       3   23541   23544
       1   23538   23541       3   23538   23544       3   23553   23556       1
   23550   23553       3   23550   23556       3   23565   23568       1   23562
   23565       3   23562   23568       3   23577   23580       1   23574   23577
       3   23574   23580       3   23589   23592       1   23586   23589       3
   23586   23592       3   23601   23604       1   23598   23601       3   23598
   23604       3   23613   23616       1   23610   23613       3   23610   23616
       3   23625   23628       1   23622   23625       3   23622   23628       3
   23637   23640       1   23634   23637       3   23634   23640       3   23649
   23652       1   23646   23649       3   23646   23652       3   23661   23664
       1   23658   23661       3   23658   23664       3   23673   23676       1
   23670   23673       3   23670   23676       3   23685   23688       1   23682
   23685       3   23682   23688       3   23697   23700       1   23694   23697
       3   23694   23700       3   23709   23712       1   23706   23709       3
   23706   23712       3   23721   23724       1   23718   23721       3   23718
   23724       3   23733   23736       1   23730   23733       3   23730   23736
       3   23745   23748       1   23742   23745       3   23742   23748       3
   23757   23760       1   23754   23757       3   23754   23760       3   23769
   23772       1   23766   23769       3   23766   23772       3   23781   23784
       1   23778   23781       3   23778   23784       3   23793   23796       1
   23790   23793       3   23790   23796       3   23805   23808       1   23802
   23805       3   23802   23808       3   23817   23820       1   23814   23817
       3   23814   23820       3   23829   23832       1   23826   23829       3
   23826   23832       3   23841   23844       1   23838   23841       3   23838
   23844       3   23853   23856       1   23850   23853       3   23850   23856
       3   23865   23868       1   23862   23865       3   23862   23868       3
   23877   23880       1   23874   23877       3   23874   23880       3   23889
   23892       1   23886   23889       3   23886   23892       3   23901   23904
       1   23898   23901       3   23898   23904       3   23913   23916       1
   23910   23913       3   23910   23916       3   23925   23928       1   23922
   23925       3   23922   23928       3   23937   23940       1   23934   23937
       3   23934   23940       3   23949   23952       1   23946   23949       3
   23946   23952       3   23961   23964       1   23958   23961       3   23958
   23964       3   23973   23976       1   23970   23973       3   23970   23976
       3   23985   23988       1   23982   23985       3   23982   23988       3
   23997   24000       1   23994   23997       3   23994   24000       3   24009
   24012       1   24006   24009       3   24006   24012       3   24021   24024
       1   24018   24021       3   24018   24024       3   24033   24036       1
   24030   24033       3   24030   24036       3   24045   24048       1   24042
   24045       3   24042   24048       3   24057   24060       1   24054   24057
       3   24054   24060       3   24069   24072       1   24066   24069       3
   24066   24072       3   24081   24084       1   24078   24081       3   24078
   24084       3   24093   24096       1   24090   24093       3   24090   24096
       3   24105   24108       1   24102   24105       3   24102   24108       3
   24117   24120       1   24114   24117       3   24114   24120       3   24129
   24132       1   24126   24129       3   24126   24132       3   24141   24144
       1   24138   24141       3   24138   24144       3   24153   24156       1
   24150   24153       3   24150   24156       3   24165   24168       1   24162
   24165       3   24162   24168       3   24177   24180       1   24174   24177
       3   24174   24180       3   24189   24192       1   24186   24189       3
   24186   24192       3   24201   24204       1   24198   24201       3   24198
   24204       3   24213   24216       1   24210   24213       3   24210   24216
       3   24225   24228       1   24222   24225       3   24222   24228       3
   24237   24240       1   24234   24237       3   24234   24240       3   24249
   24252       1   24246   24249       3   24246   24252       3   24261   24264
       1   24258   24261       3   24258   24264       3   24273   24276       1
   24270   24273       3   24270   24276       3   24285   24288       1   24282
   24285       3   24282   24288       3   24297   24300       1   24294   24297
       3   24294   24300       3   24309   24312       1   24306   24309       3
   24306   24312       3   24321   24324       1   24318   24321       3   24318
   24324       3   24333   24336       1   24330   24333       3   24330   24336
       3   24345   24348       1   24342   24345       3   24342   24348       3
   24357   24360       1   24354   24357       3   24354   24360       3   24369
   24372       1   24366   24369       3   24366   24372       3   24381   24384
       1   24378   24381       3   24378   24384       3   24393   24396       1
   24390   24393       3   24390   24396       3   24405   24408       1   24402
   24405       3   24402   24408       3   24417   24420       1   24414   24417
       3   24414   24420       3   24429   24432       1   24426   24429       3
   24426   24432       3   24441   24444       1   24438   24441       3   24438
   24444       3   24453   24456       1   24450   24453       3   24450   24456
       3   24465   24468       1   24462   24465       3   24462   24468       3
   24477   24480       1   24474   24477       3   24474   24480       3   24489
   24492       1   24486   24489       3   24486   24492       3   24501   24504
       1   24498   24501       3   24498   24504       3   24513   24516       1
   24510   24513       3   24510   24516       3   24525   24528       1   24522
   24525       3   24522   24528       3   24537   24540       1   24534   24537
       3   24534   24540       3   24549   24552       1   24546   24549       3
   24546   24552       3   24561   24564       1   24558   24561       3   24558
   24564       3   24573   24576       1   24570   24573       3   24570   24576
       3   24585   24588       1   24582   24585       3   24582   24588       3
   24597   24600       1   24594   24597       3   24594   24600       3   24609
   24612       1   24606   24609       3   24606   24612       3   24621   24624
       1   24618   24621       3   24618   24624       3   24633   24636       1
   24630   24633       3   24630   24636       3   24645   24648       1   24642
   24645       3   24642   24648       3   24657   24660       1   24654   24657
       3   24654   24660       3   24669   24672       1   24666   24669       3
   24666   24672       3   24681   24684       1   24678   24681       3   24678
   24684       3   24693   24696       1   24690   24693       3   24690   24696
       3   24705   24708       1   24702   24705       3   24702   24708       3
   24717   24720       1   24714   24717       3   24714   24720       3   24729
   24732       1   24726   24729       3   24726   24732       3   24741   24744
       1   24738   24741       3   24738   24744       3   24753   24756       1
   24750   24753       3   24750   24756       3   24765   24768       1   24762
   24765       3   24762   24768       3   24777   24780       1   24774   24777
       3   24774   24780       3   24789   24792       1   24786   24789       3
   24786   24792       3   24801   24804       1   24798   24801       3   24798
   24804       3   24813   24816       1   24810   24813       3   24810   24816
       3   24825   24828       1   24822   24825       3   24822   24828       3
   24837   24840       1   24834   24837       3   24834   24840       3   24849
   24852       1   24846   24849       3   24846   24852       3   24861   24864
       1   24858   24861       3   24858   24864       3   24873   24876       1
   24870   24873       3   24870   24876       3   24885   24888       1   24882
   24885       3   24882   24888       3   24897   24900       1   24894   24897
       3   24894   24900       3   24909   24912       1   24906   24909       3
   24906   24912       3   24921   24924       1   24918   24921       3   24918
   24924       3   24933   24936       1   24930   24933       3   24930   24936
       3   24945   24948       1   24942   24945       3   24942   24948       3
   24957   24960       1   24954   24957       3   24954   24960       3   24969
   24972       1   24966   24969       3   24966   24972       3   24981   24984
       1   24978   24981       3   24978   24984       3   24993   24996       1
   24990   24993       3   24990   24996       3   25005   25008       1   25002
   25005       3   25002   25008       3   25017   25020       1   25014   25017
       3   25014   25020       3   25029   25032       1   25026   25029       3
   25026   25032       3   25041   25044       1   25038   25041       3   25038
   25044       3   25053   25056       1   25050   25053       3   25050   25056
       3   25065   25068       1   25062   25065       3   25062   25068       3
   25077   25080       1   25074   25077       3   25074   25080       3   25089
   25092       1   25086   25089       3   25086   25092       3   25101   25104
       1   25098   25101       3   25098   25104       3   25113   25116       1
   25110   25113       3   25110   25116       3   25125   25128       1   25122
   25125       3   25122   25128       3   25137   25140       1   25134   25137
       3   25134   25140       3   25149   25152       1   25146   25149       3
   25146   25152       3   25161   25164       1   25158   25161       3   25158
   25164       3   25173   25176       1   25170   25173       3   25170   25176
       3   25185   25188       1   25182   25185       3   25182   25188       3
   25197   25200       1   25194   25197       3   25194   25200       3   25209
   25212       1   25206   25209       3   25206   25212       3   25221   25224
       1   25218   25221       3   25218   25224       3   25233   25236       1
   25230   25233       3   25230   25236       3   25245   25248       1   25242
   25245       3   25242   25248       3   25257   25260       1   25254   25257
       3   25254   25260       3   25269   25272       1   25266   25269       3
   25266   25272       3   25281   25284       1   25278   25281       3   25278
   25284       3   25293   25296       1   25290   25293       3   25290   25296
       3   25305   25308       1   25302   25305       3   25302   25308       3
   25317   25320       1   25314   25317       3   25314   25320       3   25329
   25332       1   25326   25329       3   25326   25332       3   25341   25344
       1   25338   25341       3   25338   25344       3   25353   25356       1
   25350   25353       3   25350   25356       3   25365   25368       1   25362
   25365       3   25362   25368       3   25377   25380       1   25374   25377
       3   25374   25380       3   25389   25392       1   25386   25389       3
   25386   25392       3   25401   25404       1   25398   25401       3   25398
   25404       3   25413   25416       1   25410   25413       3   25410   25416
       3   25425   25428       1   25422   25425       3   25422   25428       3
   25437   25440       1   25434   25437       3   25434   25440       3   25449
   25452       1   25446   25449       3   25446   25452       3   25461   25464
       1   25458   25461       3   25458   25464       3   25473   25476       1
   25470   25473       3   25470   25476       3   25485   25488       1   25482
   25485       3   25482   25488       3   25497   25500       1   25494   25497
       3   25494   25500       3   25509   25512       1   25506   25509       3
   25506   25512       3   25521   25524       1   25518   25521       3   25518
   25524       3   25533   25536       1   25530   25533       3   25530   25536
       3   25545   25548       1   25542   25545       3   25542   25548       3
   25557   25560       1   25554   25557       3   25554   25560       3   25569
   25572       1   25566   25569       3   25566   25572       3   25581   25584
       1   25578   25581       3   25578   25584       3   25593   25596       1
   25590   25593       3   25590   25596       3   25605   25608       1   25602
   25605       3   25602   25608       3   25617   25620       1   25614   25617
       3   25614   25620       3   25629   25632       1   25626   25629       3
   25626   25632       3   25641   25644       1   25638   25641       3   25638
   25644       3   25653   25656       1   25650   25653       3   25650   25656
       3   25665   25668       1   25662   25665       3   25662   25668       3
   25677   25680       1   25674   25677       3   25674   25680       3   25689
   25692       1   25686   25689       3   25686   25692       3   25701   25704
       1   25698   25701       3   25698   25704       3   25713   25716       1
   25710   25713       3   25710   25716       3   25725   25728       1   25722
   25725       3   25722   25728       3   25737   25740       1   25734   25737
       3   25734   25740       3   25749   25752       1   25746   25749       3
   25746   25752       3   25761   25764       1   25758   25761       3   25758
   25764       3   25773   25776       1   25770   25773       3   25770   25776
       3   25785   25788       1   25782   25785       3   25782   25788       3
   25797   25800       1   25794   25797       3   25794   25800       3   25809
   25812       1   25806   25809       3   25806   25812       3   25821   25824
       1   25818   25821       3   25818   25824       3   25833   25836       1
   25830   25833       3   25830   25836       3   25845   25848       1   25842
   25845       3   25842   25848       3   25857   25860       1   25854   25857
       3   25854   25860       3   25869   25872       1   25866   25869       3
   25866   25872       3   25881   25884       1   25878   25881       3   25878
   25884       3   25893   25896       1   25890   25893       3   25890   25896
       3   25905   25908       1   25902   25905       3   25902   25908       3
   25917   25920       1   25914   25917       3   25914   25920       3   25929
   25932       1   25926   25929       3   25926   25932       3   25941   25944
       1   25938   25941       3   25938   25944       3   25953   25956       1
   25950   25953       3   25950   25956       3   25965   25968       1   25962
   25965       3   25962   25968       3   25977   25980       1   25974   25977
       3   25974   25980       3   25989   25992       1   25986   25989       3
   25986   25992       3   26001   26004       1   25998   26001       3   25998
   26004       3   26013   26016       1   26010   26013       3   26010   26016
       3   26025   26028       1   26022   26025       3   26022   26028       3
   26037   26040       1   26034   26037       3   26034   26040       3   26049
   26052       1   26046   26049       3   26046   26052       3   26061   26064
       1   26058   26061       3   26058   26064       3   26073   26076       1
   26070   26073       3   26070   26076       3   26085   26088       1   26082
   26085       3   26082   26088       3   26097   26100       1   26094   26097
       3   26094   26100       3   26109   26112       1   26106   26109       3
   26106   26112       3   26121   26124       1   26118   26121       3   26118
   26124       3   26133   26136       1   26130   26133       3   26130   26136
       3   26145   26148       1   26142   26145       3   26142   26148       3
   26157   26160       1   26154   26157       3   26154   26160       3   26169
   26172       1   26166   26169       3   26166   26172       3   26181   26184
       1   26178   26181       3   26178   26184       3   26193   26196       1
   26190   26193       3   26190   26196       3   26205   26208       1   26202
   26205       3   26202   26208       3   26217   26220       1   26214   26217
       3   26214   26220       3   26229   26232       1   26226   26229       3
   26226   26232       3   26241   26244       1   26238   26241       3   26238
   26244       3   26253   26256       1   26250   26253       3   26250   26256
       3   26265   26268       1   26262   26265       3   26262   26268       3
   26277   26280       1   26274   26277       3   26274   26280       3      81
     111       4      78     108       6      63     105      11      60     102
      11      57      99      11      54      96      11      51      93      11
      45      90      14      42      87      14      36      84      19
%FLAG BONDS_WITHOUT_HYDROGEN                                                    
%FORMAT(10I8)                                                                   
     114     123       2     126     135       2     138     147       2     150
     159       2     162     171       2     174     183       2     186     195
       2     198     207       2     210     219       2     222     231       2
     234     243       2     246     255       2     258     267       2     270
     279       2     282     291       2     294     303       2     306     315
       2     318     327       2     330     339       2     342     351       2
     354     363       2     366     375       2     378     387       2     390
     399       2     402     411       2     414     423       2     426     435
       2     438     447       2     450     459       2     462     471       2
     474     483       2     486     495       2     498     507       2     510
     519       2     522     531       2     534     543       2     546     555
       2     558     567       2     570     579       2     582     591       2
     594     603       2     606     615       2     618     627       2     630
     639       2     642     651       2     654     663       2     666     675
       2     678     687       2     690     699       2     702     711       2
     714     723       2     726     735       2     738     747       2     750
     759       2     762     771       2     774     783       2     786     795
       2     798     807       2     810     819       2     822     831       2
     834     843       2     846     855       2     858     867       2     870
     879       2     882     891       2     894     903       2     906     915
       2     918     927       2     930     939       2     942     951       2
     954     963       2     966     975       2     978     987       2     990
     999       2    1002    1011       2    1014    1023       2    1026    1035
       2    1038    1047       2    1050    1059       2    1062    1071       2
    1074    1083       2    1086    1095       2    1098    1107       2    1110
    1119       2    1122    1131       2    1134    1143       2    1146    1155
       2    1158    1167       2    1170    1179       2    1182    1191       2
    1194    1203       2    1206    1215       2    1218    1227       2    1230
    1239       2    1242    1251       2    1254    1263       2    1266    1275
       2    1278    1287       2    1290    1299       2    1302    1311       2
    1314    1323       2    1326    1335       2    1338    1347       2    1350
    1359       2    1362    1371       2    1374    1383       2    1386    1395
       2    1398    1407       2    1410    1419       2    1422    1431       2
    1434    1443       2    1446    1455       2    1458    1467       2    1470
    1479       2    1482    1491       2    1494    1503       2    1506    1515
       2    1518    1527       2    1530    1539       2    1542    1551       2
    1554    1563       2    1566    1575       2    1578    1587       2    1590
    1599       2    1602    1611       2    1614    1623       2    1626    1635
       2    1638    1647       2    1650    1659       2    1662    1671       2
    1674    1683       2    1686    1695       2    1698    1707       2    1710
    1719       2    1722    1731       2    1734    1743       2    1746    1755
       2    1758    1767       2    1770    1779       2    1782    1791       2
    1794    1803       2    1806    1815       2    1818    1827       2    1830
    1839       2    1842    1851       2    1854    1863       2    1866    1875
       2    1878    1887       2    1890    1899       2    1902    1911       2
    1914    1923       2    1926    1935       2    1938    1947       2    1950
    1959       2    1962    1971       2    1974    1983       2    1986    1995
       2    1998    2007       2    2010    2019       2    2022    2031       2
    2034    2043       2    2046    2055       2    2058    2067       2    2070
    2079       2    2082    2091       2    2094    2103       2    2106    2115
       2    2118    2127       2    2130    2139       2    2142    2151       2
    2154    2163       2    2166    2175       2    2178    2187       2    2190
    2199       2    2202    2211       2    2214    2223       2    2226    2235
       2    2238    2247       2    2250    2259       2    2262    2271       2
    2274    2283       2    2286    2295       2    2298    2307       2    2310
    2319       2    2322    2331       2    2334    2343       2    2346    2355
       2    2358    2367       2    2370    2379       2    2382    2391       2
    2394    2403       2    2406    2415       2    2418    2427       2    2430
    2439       2    2442    2451       2    2454    2463       2    2466    2475
       2    2478    2487       2    2490    2499       2    2502    2511       2
    2514    2523       2    2526    2535       2    2538    2547       2    2550
    2559       2    2562    2571       2    2574    2583       2    2586    2595
       2    2598    2607       2    2610    2619       2    2622    2631       2
    2634    2643       2    2646    2655       2    2658    2667       2    2670
    2679       2    2682    2691       2    2694    2703       2    2706    2715
       2    2718    2727       2    2730    2739       2    2742    2751       2
    2754    2763       2    2766    2775       2    2778    2787       2    2790
    2799       2    2802    2811       2    2814    2823       2    2826    2835
       2    2838    2847       2    2850    2859       2    2862    2871       2
    2874    2883       2    2886    2895       2    2898    2907       2    2910
    2919       2    2922    2931       2    2934    2943       2    2946    2955
       2    2958    2967       2    2970    2979       2    2982    2991       2
    2994    3003       2    3006    3015       2    3018    3027       2    3030
    3039       2    3042    3051       2    3054    3063       2    3066    3075
       2    3078    3087       2    3090    3099       2    3102    3111       2
    3114    3123       2    3126    3135       2    3138    3147       2    3150
    3159       2    3162    3171       2    3174    3183       2    3186    3195
       2    3198    3207       2    3210    3219       2    3222    3231       2
    3234    3243       2    3246    3255       2    3258    3267       2    3270
    3279       2    3282    3291       2    3294    3303       2    3306    3315
       2    3318    3327       2    3330    3339       2    3342    3351       2
    3354    3363       2    3366    3375       2    3378    3387       2    3390
    3399       2    3402    3411       2    3414    3423       2    3426    3435
       2    3438    3447       2    3450    3459       2    3462    3471       2
    3474    3483       2    3486    3495       2    3498    3507       2    3510
    3519       2    3522    3531       2    3534    3543       2    3546    3555
       2    3558    3567       2    3570    3579       2    3582    3591       2
    3594    3603       2    3606    3615       2    3618    3627       2    3630
    3639       2    3642    3651       2    3654    3663       2    3666    3675
       2    3678    3687       2    3690    3699       2    3702    3711       2
    3714    3723       2    3726    3735       2    3738    3747       2    3750
    3759       2    3762    3771       2    3774    3783       2    3786    3795
       2    3798    3807       2    3810    3819       2    3822    3831       2
    3834    3843       2    3846    3855       2    3858    3867       2    3870
    3879       2    3882    3891       2    3894    3903       2    3906    3915
       2    3918    3927       2    3930    3939       2    3942    3951       2
    3954    3963       2    3966    3975       2    3978    3987       2    3990
    3999       2    4002    4011       2    4014    4023       2    4026    4035
       2    4038    4047       2    4050    4059       2    4062    4071       2
    4074    4083       2    4086    4095       2    4098    4107       2    4110
    4119       2    4122    4131       2    4134    4143       2    4146    4155
       2    4158    4167       2    4170    4179       2    4182    4191       2
    4194    4203       2    4206    4215       2    4218    4227       2    4230
    4239       2    4242    4251       2    4254    4263       2    4266    4275
       2    4278    4287       2    4290    4299       2    4302    4311       2
    4314    4323       2    4326    4335       2    4338    4347       2    4350
    4359       2    4362    4371       2    4374    4383       2    4386    4395
       2    4398    4407       2    4410    4419       2    4422    4431       2
    4434    4443       2    4446    4455       2    4458    4467       2    4470
    4479       2    4482    4491       2    4494    4503       2    4506    4515
       2    4518    4527       2    4530    4539       2    4542    4551       2
    4554    4563       2    4566    4575       2    4578    4587       2    4590
    4599       2    4602    4611       2    4614    4623       2    4626    4635
       2    4638    4647       2    4650    4659       2    4662    4671       2
    4674    4683       2    4686    4695       2    4698    4707       2    4710
    4719       2    4722    4731       2    4734    4743       2    4746    4755
       2    4758    4767       2    4770    4779       2    4782    4791       2
    4794    4803       2    4806    4815       2    4818    4827       2    4830
    4839       2    4842    4851       2    4854    4863       2    4866    4875
       2    4878    4887       2    4890    4899       2    4902    4911       2
    4914    4923       2    4926    4935       2    4938    4947       2    4950
    4959       2    4962    4971       2    4974    4983       2    4986    4995
       2    4998    5007       2    5010    5019       2    5022    5031       2
    5034    5043       2    5046    5055       2    5058    5067       2    5070
    5079       2    5082    5091       2    5094    5103       2    5106    5115
       2    5118    5127       2    5130    5139       2    5142    5151       2
    5154    5163       2    5166    5175       2    5178    5187       2    5190
    5199       2    5202    5211       2    5214    5223       2    5226    5235
       2    5238    5247       2    5250    5259       2    5262    5271       2
    5274    5283       2    5286    5295       2    5298    5307       2    5310
    5319       2    5322    5331       2    5334    5343       2    5346    5355
       2    5358    5367       2    5370    5379       2    5382    5391       2
    5394    5403       2    5406    5415       2    5418    5427       2    5430
    5439       2    5442    5451       2    5454    5463       2    5466    5475
       2    5478    5487       2    5490    5499       2    5502    5511       2
    5514    5523       2    5526    5535       2    5538    5547       2    5550
    5559       2    5562    5571       2    5574    5583       2    5586    5595
       2    5598    5607       2    5610    5619       2    5622    5631       2
    5634    5643       2    5646    5655       2    5658    5667       2    5670
    5679       2    5682    5691       2    5694    5703       2    5706    5715
       2    5718    5727       2    5730    5739       2    5742    5751       2
    5754    5763       2    5766    5775       2    5778    5787       2    5790
    5799       2    5802    5811       2    5814    5823       2    5826    5835
       2    5838    5847       2    5850    5859       2    5862    5871       2
    5874    5883       2    5886    5895       2    5898    5907       2    5910
    5919       2    5922    5931       2    5934    5943       2    5946    5955
       2    5958    5967       2    5970    5979       2    5982    5991       2
    5994    6003       2    6006    6015       2    6018    6027       2    6030
    6039       2    6042    6051       2    6054    6063       2    6066    6075
       2    6078    6087       2    6090    6099       2    6102    6111       2
    6114    6123       2    6126    6135       2    6138    6147       2    6150
    6159       2    6162    6171       2    6174    6183       2    6186    6195
       2    6198    6207       2    6210    6219       2    6222    6231       2
    6234    6243       2    6246    6255       2    6258    6267       2    6270
    6279       2    6282    6291       2    6294    6303       2    6306    6315
       2    6318    6327       2    6330    6339       2    6342    6351       2
    6354    6363       2    6366    6375       2    6378    6387       2    6390
    6399       2    6402    6411       2    6414    6423       2    6426    6435
       2    6438    6447       2    6450    6459       2    6462    6471       2
    6474    6483       2    6486    6495       2    6498    6507       2    6510
    6519       2    6522    6531       2    6534    6543       2    6546    6555
       2    6558    6567       2    6570    6579       2    6582    6591       2
    6594    6603       2    6606    6615       2    6618    6627       2    6630
    6639       2    6642    6651       2    6654    6663       2    6666    6675
       2    6678    6687       2    6690    6699       2    6702    6711       2
    6714    6723       2    6726    6735       2    6738    6747       2    6750
    6759       2    6762    6771       2    6774    6783       2    6786    6795
       2    6798    6807       2    6810    6819       2    6822    6831       2
    6834    6843       2    6846    6855       2    6858    6867       2    6870
    6879       2    6882    6891       2    6894    6903       2    6906    6915
       2    6918    6927       2    6930    6939       2    6942    6951       2
    6954    6963       2    6966    6975       2    6978    6987       2    6990
    6999       2    7002    7011       2    7014    7023       2    7026    7035
       2    7038    7047       2    7050    7059       2    7062    7071       2
    7074    7083       2    7086    7095       2    7098    7107       2    7110
    7119       2    7122    7131       2    7134    7143       2    7146    7155
       2    7158    7167       2    7170    7179       2    7182    7191       2
    7194    7203       2    7206    7215       2    7218    7227       2    7230
    7239       2    7242    7251       2    7254    7263       2    7266    7275
       2    7278    7287       2    7290    7299       2    7302    7311       2
    7314    7323       2    7326    7335       2    7338    7347       2    7350
    7359       2    7362    7371       2    7374    7383       2    7386    7395
       2    7398    7407       2    7410    7419       2    7422    7431       2
    7434    7443       2    7446    7455       2    7458    7467       2    7470
    7479       2    7482    7491       2    7494    7503       2    7506    7515
       2    7518    7527       2    7530    7539       2    7542    7551       2
    7554    7563       2    7566    7575       2    7578    7587       2    7590
    7599       2    7602    7611       2    7614    7623       2    7626    7635
       2    7638    7647       2    7650    7659       2    7662    7671       2
    7674    7683       2    7686    7695       2    7698    7707       2    7710
    7719       2    7722    7731       2    7734    7743       2    7746    7755
       2    7758    7767       2    7770    7779       2    7782    7791       2
    7794    7803       2    7806    7815       2    7818    7827       2    7830
    7839       2    7842    7851       2    7854    7863       2    7866    7875
       2    7878    7887       2    7890    7899       2    7902    7911       2
    7914    7923       2    7926    7935       2    7938    7947       2    7950
    7959       2    7962    7971       2    7974    7983       2    7986    7995
       2    7998    8007       2    8010    8019       2    8022    8031       2
    8034    8043       2    8046    8055       2    8058    8067       2    8070
    8079       2    8082    8091       2    8094    8103       2    8106    8115
       2    8118    8127       2    8130    8139       2    8142    8151       2
    8154    8163       2    8166    8175       2    8178    8187       2    8190
    8199       2    8202    8211       2    8214    8223       2    8226    8235
       2    8238    8247       2    8250    8259       2    8262    8271       2
    8274    8283       2    8286    8295       2    8298    8307       2    8310
    8319       2    8322    8331       2    8334    8343       2    8346    8355
       2    8358    8367       2    8370    8379       2    8382    8391       2
    8394    8403       2    8406    8415       2    8418    8427       2    8430
    8439       2    8442    8451       2    8454    8463       2    8466    8475
       2    8478    8487       2    8490    8499       2    8502    8511       2
    8514    8523       2    8526    8535       2    8538    8547       2    8550
    8559       2    8562    8571       2    8574    8583       2    8586    8595
       2    8598    8607       2    8610    8619       2    8622    8631       2
    8634    8643       2    8646    8655       2    8658    8667       2    8670
    8679       2    8682    8691       2    8694    8703       2    8706    8715
       2    8718    8727       2    8730    8739       2    8742    8751       2
    8754    8763       2    8766    8775       2    8778    8787       2    8790
    8799       2    8802    8811       2    8814    8823       2    8826    8835
       2    8838    8847       2    8850    8859       2    8862    8871       2
    8874    8883       2    8886    8895       2    8898    8907       2    8910
    8919       2    8922    8931       2    8934    8943       2    8946    8955
       2    8958    8967       2    8970    8979       2    8982    8991       2
    8994    9003       2    9006    9015       2    9018    9027       2    9030
    9039       2    9042    9051       2    9054    9063       2    9066    9075
       2    9078    9087       2    9090    9099       2    9102    9111       2
    9114    9123       2    9126    9135       2    9138    9147       2    9150
    9159       2    9162    9171       2    9174    9183       2    9186    9195
       2    9198    9207       2    9210    9219       2    9222    9231       2
    9234    9243       2    9246    9255       2    9258    9267       2    9270
    9279       2    9282    9291       2    9294    9303       2    9306    9315
       2    9318    9327       2    9330    9339       2    9342    9351       2
    9354    9363       2    9366    9375       2    9378    9387       2    9390
    9399       2    9402    9411       2    9414    9423       2    9426    9435
       2    9438    9447       2    9450    9459       2    9462    9471       2
    9474    9483       2    9486    9495       2    9498    9507       2    9510
    9519       2    9522    9531       2    9534    9543       2    9546    9555
       2    9558    9567       2    9570    9579       2    9582    9591       2
    9594    9603       2    9606    9615       2    9618    9627       2    9630
    9639       2    9642    9651       2    9654    9663       2    9666    9675
       2    9678    9687       2    9690    9699       2    9702    9711       2
    9714    9723       2    9726    9735       2    9738    9747       2    9750
    9759       2    9762    9771       2    9774    9783       2    9786    9795
       2    9798    9807       2    9810    9819       2    9822    9831       2
    9834    9843       2    9846    9855       2    9858    9867       2    9870
    9879       2    9882    9891       2    9894    9903       2    9906    9915
       2    9918    9927       2    9930    9939       2    9942    9951       2
    9954    9963       2    9966    9975       2    9978    9987       2    9990
    9999       2   10002   10011       2   10014   10023       2   10026   10035
       2   10038   10047       2   10050   10059       2   10062   10071       2
   10074   10083       2   10086   10095       2   10098   10107       2   10110
   10119       2   10122   10131       2   10134   10143       2   10146   10155
       2   10158   10167       2   10170   10179       2   10182   10191       2
   10194   10203       2   10206   10215       2   10218   10227       2   10230
   10239       2   10242   10251       2   10254   10263       2   10266   10275
       2   10278   10287       2   10290   10299       2   10302   10311       2
   10314   10323       2   10326   10335       2   10338   10347       2   10350
   10359       2   10362   10371       2   10374   10383       2   10386   10395
       2   10398   10407       2   10410   10419       2   10422   10431       2
   10434   10443       2   10446   10455       2   10458   10467       2   10470
   10479       2   10482   10491       2   10494   10503       2   10506   10515
       2   10518   10527       2   10530   10539       2   10542   10551       2
   10554   10563       2   10566   10575       2   10578   10587       2   10590
   10599       2   10602   10611       2   10614   10623       2   10626   10635
       2   10638   10647       2   10650   10659       2   10662   10671       2
   10674   10683       2   10686   10695       2   10698   10707       2   10710
   10719       2   10722   10731       2   10734   10743       2   10746   10755
       2   10758   10767       2   10770   10779       2   10782   10791       2
   10794   10803       2   10806   10815       2   10818   10827       2   10830
   10839       2   10842   10851       2   10854   10863       2   10866   10875
       2   10878   10887       2   10890   10899       2   10902   10911       2
   10914   10923       2   10926   10935       2   10938   10947       2   10950
   10959       2   10962   10971       2   10974   10983       2   10986   10995
       2   10998   11007       2   11010   11019       2   11022   11031       2
   11034   11043       2   11046   11055       2   11058   11067       2   11070
   11079       2   11082   11091       2   11094   11103       2   11106   11115
       2   11118   11127       2   11130   11139       2   11142   11151       2
   11154   11163       2   11166   11175       2   11178   11187       2   11190
   11199       2   11202   11211       2   11214   11223       2   11226   11235
       2   11238   11247       2   11250   11259       2   11262   11271       2
   11274   11283       2   11286   11295       2   11298   11307       2   11310
   11319       2   11322   11331       2   11334   11343       2   11346   11355
       2   11358   11367       2   11370   11379       2   11382   11391       2
   11394   11403       2   11406   11415       2   11418   11427       2   11430
   11439       2   11442   11451       2   11454   11463       2   11466   11475
       2   11478   11487       2   11490   11499       2   11502   11511       2
   11514   11523       2   11526   11535       2   11538   11547       2   11550
   11559       2   11562   11571       2   11574   11583       2   11586   11595
       2   11598   11607       2   11610   11619       2   11622   11631       2
   11634   11643       2   11646   11655       2   11658   11667       2   11670
   11679       2   11682   11691       2   11694   11703       2   11706   11715
       2   11718   11727       2   11730   11739       2   11742   11751       2
   11754   11763       2   11766   11775       2   11778   11787       2   11790
   11799       2   11802   11811       2   11814   11823       2   11826   11835
       2   11838   11847       2   11850   11859       2   11862   11871       2
   11874   11883       2   11886   11895       2   11898   11907       2   11910
   11919       2   11922   11931       2   11934   11943       2   11946   11955
       2   11958   11967       2   11970   11979       2   11982   11991       2
   11994   12003       2   12006   12015       2   12018   12027       2   12030
   12039       2   12042   12051       2   12054   12063       2   12066   12075
       2   12078   12087       2   12090   12099       2   12102   12111       2
   12114   12123       2   12126   12135       2   12138   12147       2   12150
   12159       2   12162   12171       2   12174   12183       2   12186   12195
       2   12198   12207       2   12210   12219       2   12222   12231       2
   12234   12243       2   12246   12255       2   12258   12267       2   12270
   12279       2   12282   12291       2   12294   12303       2   12306   12315
       2   12318   12327       2   12330   12339       2   12342   12351       2
   12354   12363       2   12366   12375       2   12378   12387       2   12390
   12399       2   12402   12411       2   12414   12423       2   12426   12435
       2   12438   12447       2   12450   12459       2   12462   12471       2
   12474   12483       2   12486   12495       2   12498   12507       2   12510
   12519       2   12522   12531       2   12534   12543       2   12546   12555
       2   12558   12567       2   12570   12579       2   12582   12591       2
   12594   12603       2   12606   12615       2   12618   12627       2   12630
   12639       2   12642   12651       2   12654   12663       2   12666   12675
       2   12678   12687       2   12690   12699       2   12702   12711       2
   12714   12723       2   12726   12735       2   12738   12747       2   12750
   12759       2   12762   12771       2   12774   12783       2   12786   12795
       2   12798   12807       2   12810   12819       2   12822   12831       2
   12834   12843       2   12846   12855       2   12858   12867       2   12870
   12879       2   12882   12891       2   12894   12903       2   12906   12915
       2   12918   12927       2   12930   12939       2   12942   12951       2
   12954   12963       2   12966   12975       2   12978   12987       2   12990
   12999       2   13002   13011       2   13014   13023       2   13026   13035
       2   13038   13047       2   13050   13059       2   13062   13071       2
   13074   13083       2   13086   13095       2   13098   13107       2   13110
   13119       2   13122   13131       2   13134   13143       2   13146   13155
       2   13158   13167       2   13170   13179       2   13182   13191       2
   13194   13203       2   13206   13215       2   13218   13227       2   13230
   13239       2   13242   13251       2   13254   13263       2   13266   13275
       2   13278   13287       2   13290   13299       2   13302   13311       2
   13314   13323       2   13326   13335       2   13338   13347       2   13350
   13359       2   13362   13371       2   13374   13383       2   13386   13395
       2   13398   13407       2   13410   13419       2   13422   13431       2
   13434   13443       2   13446   13455       2   13458   13467       2   13470
   13479       2   13482   13491       2   13494   13503       2   13506   13515
       2   13518   13527       2   13530   13539       2   13542   13551       2
   13554   13563       2   13566   13575       2   13578   13587       2   13590
   13599       2   13602   13611       2   13614   13623       2   13626   13635
       2   13638   13647       2   13650   13659       2   13662   13671       2
   13674   13683       2   13686   13695       2   13698   13707       2   13710
   13719       2   13722   13731       2   13734   13743       2   13746   13755
       2   13758   13767       2   13770   13779       2   13782   13791       2
   13794   13803       2   13806   13815       2   13818   13827       2   13830
   13839       2   13842   13851       2   13854   13863       2   13866   13875
       2   13878   13887       2   13890   13899       2   13902   13911       2
   13914   13923       2   13926   13935       2   13938   13947       2   13950
   13959       2   13962   13971       2   13974   13983       2   13986   13995
       2   13998   14007       2   14010   14019       2   14022   14031       2
   14034   14043       2   14046   14055       2   14058   14067       2   14070
   14079       2   14082   14091       2   14094   14103       2   14106   14115
       2   14118   14127       2   14130   14139       2   14142   14151       2
   14154   14163       2   14166   14175       2   14178   14187       2   14190
   14199       2   14202   14211       2   14214   14223       2   14226   14235
       2   14238   14247       2   14250   14259       2   14262   14271       2
   14274   14283       2   14286   14295       2   14298   14307       2   14310
   14319       2   14322   14331       2   14334   14343       2   14346   14355
       2   14358   14367       2   14370   14379       2   14382   14391       2
   14394   14403       2   14406   14415       2   14418   14427       2   14430
   14439       2   14442   14451       2   14454   14463       2   14466   14475
       2   14478   14487       2   14490   14499       2   14502   14511       2
   14514   14523       2   14526   14535       2   14538   14547       2   14550
   14559       2   14562   14571       2   14574   14583       2   14586   14595
       2   14598   14607       2   14610   14619       2   14622   14631       2
   14634   14643       2   14646   14655       2   14658   14667       2   14670
   14679       2   14682   14691       2   14694   14703       2   14706   14715
       2   14718   14727       2   14730   14739       2   14742   14751       2
   14754   14763       2   14766   14775       2   14778   14787       2   14790
   14799       2   14802   14811       2   14814   14823       2   14826   14835
       2   14838   14847       2   14850   14859       2   14862   14871       2
   14874   14883       2   14886   14895       2   14898   14907       2   14910
   14919       2   14922   14931       2   14934   14943       2   14946   14955
       2   14958   14967       2   14970   14979       2   14982   14991       2
   14994   15003       2   15006   15015       2   15018   15027       2   15030
   15039       2   15042   15051       2   15054   15063       2   15066   15075
       2   15078   15087       2   15090   15099       2   15102   15111       2
   15114   15123       2   15126   15135       2   15138   15147       2   15150
   15159       2   15162   15171       2   15174   15183       2   15186   15195
       2   15198   15207       2   15210   15219       2   15222   15231       2
   15234   15243       2   15246   15255       2   15258   15267       2   15270
   15279       2   15282   15291       2   15294   15303       2   15306   15315
       2   15318   15327       2   15330   15339       2   15342   15351       2
   15354   15363       2   15366   15375       2   15378   15387       2   15390
   15399       2   15402   15411       2   15414   15423       2   15426   15435
       2   15438   15447       2   15450   15459       2   15462   15471       2
   15474   15483       2   15486   15495       2   15498   15507       2   15510
   15519       2   15522   15531       2   15534   15543       2   15546   15555
       2   15558   15567       2   15570   15579       2   15582   15591       2
   15594   15603       2   15606   15615       2   15618   15627       2   15630
   15639       2   15642   15651       2   15654   15663       2   15666   15675
       2   15678   15687       2   15690   15699       2   15702   15711       2
   15714   15723       2   15726   15735       2   15738   15747       2   15750
   15759       2   15762   15771       2   15774   15783       2   15786   15795
       2   15798   15807       2   15810   15819       2   15822   15831       2
   15834   15843       2   15846   15855       2   15858   15867       2   15870
   15879       2   15882   15891       2   15894   15903       2   15906   15915
       2   15918   15927       2   15930   15939       2   15942   15951       2
   15954   15963       2   15966   15975       2   15978   15987       2   15990
   15999       2   16002   16011       2   16014   16023       2   16026   16035
       2   16038   16047       2   16050   16059       2   16062   16071       2
   16074   16083       2   16086   16095       2   16098   16107       2   16110
   16119       2   16122   16131       2   16134   16143       2   16146   16155
       2   16158   16167       2   16170   16179       2   16182   16191       2
   16194   16203       2   16206   16215       2   16218   16227       2   16230
   16239       2   16242   16251       2   16254   16263       2   16266   16275
       2   16278   16287       2   16290   16299       2   16302   16311       2
   16314   16323       2   16326   16335       2   16338   16347       2   16350
   16359       2   16362   16371       2   16374   16383       2   16386   16395
       2   16398   16407       2   16410   16419       2   16422   16431       2
   16434   16443       2   16446   16455       2   16458   16467       2   16470
   16479       2   16482   16491       2   16494   16503       2   16506   16515
       2   16518   16527       2   16530   16539       2   16542   16551       2
   16554   16563       2   16566   16575       2   16578   16587       2   16590
   16599       2   16602   16611       2   16614   16623       2   16626   16635
       2   16638   16647       2   16650   16659       2   16662   16671       2
   16674   16683       2   16686   16695       2   16698   16707       2   16710
   16719       2   16722   16731       2   16734   16743       2   16746   16755
       2   16758   16767       2   16770   16779       2   16782   16791       2
   16794   16803       2   16806   16815       2   16818   16827       2   16830
   16839       2   16842   16851       2   16854   16863       2   16866   16875
       2   16878   16887       2   16890   16899       2   16902   16911       2
   16914   16923       2   16926   16935       2   16938   16947       2   16950
   16959       2   16962   16971       2   16974   16983       2   16986   16995
       2   16998   17007       2   17010   17019       2   17022   17031       2
   17034   17043       2   17046   17055       2   17058   17067       2   17070
   17079       2   17082   17091       2   17094   17103       2   17106   17115
       2   17118   17127       2   17130   17139       2   17142   17151       2
   17154   17163       2   17166   17175       2   17178   17187       2   17190
   17199       2   17202   17211       2   17214   17223       2   17226   17235
       2   17238   17247       2   17250   17259       2   17262   17271       2
   17274   17283       2   17286   17295       2   17298   17307       2   17310
   17319       2   17322   17331       2   17334   17343       2   17346   17355
       2   17358   17367       2   17370   17379       2   17382   17391       2
   17394   17403       2   17406   17415       2   17418   17427       2   17430
   17439       2   17442   17451       2   17454   17463       2   17466   17475
       2   17478   17487       2   17490   17499       2   17502   17511       2
   17514   17523       2   17526   17535       2   17538   17547       2   17550
   17559       2   17562   17571       2   17574   17583       2   17586   17595
       2   17598   17607       2   17610   17619       2   17622   17631       2
   17634   17643       2   17646   17655       2   17658   17667       2   17670
   17679       2   17682   17691       2   17694   17703       2   17706   17715
       2   17718   17727       2   17730   17739       2   17742   17751       2
   17754   17763       2   17766   17775       2   17778   17787       2   17790
   17799       2   17802   17811       2   17814   17823       2   17826   17835
       2   17838   17847       2   17850   17859       2   17862   17871       2
   17874   17883       2   17886   17895       2   17898   17907       2   17910
   17919       2   17922   17931       2   17934   17943       2   17946   17955
       2   17958   17967       2   17970   17979       2   17982   17991       2
   17994   18003       2   18006   18015       2   18018   18027       2   18030
   18039       2   18042   18051       2   18054   18063       2   18066   18075
       2   18078   18087       2   18090   18099       2   18102   18111       2
   18114   18123       2   18126   18135       2   18138   18147       2   18150
   18159       2   18162   18171       2   18174   18183       2   18186   18195
       2   18198   18207       2   18210   18219       2   18222   18231       2
   18234   18243       2   18246   18255       2   18258   18267       2   18270
   18279       2   18282   18291       2   18294   18303       2   18306   18315
       2   18318   18327       2   18330   18339       2   18342   18351       2
   18354   18363       2   18366   18375       2   18378   18387       2   18390
   18399       2   18402   18411       2   18414   18423       2   18426   18435
       2   18438   18447       2   18450   18459       2   18462   18471       2
   18474   18483       2   18486   18495       2   18498   18507       2   18510
   18519       2   18522   18531       2   18534   18543       2   18546   18555
       2   18558   18567       2   18570   18579       2   18582   18591       2
   18594   18603       2   18606   18615       2   18618   18627       2   18630
   18639       2   18642   18651       2   18654   18663       2   18666   18675
       2   18678   18687       2   18690   18699       2   18702   18711       2
   18714   18723       2   18726   18735       2   18738   18747       2   18750
   18759       2   18762   18771       2   18774   18783       2   18786   18795
       2   18798   18807       2   18810   18819       2   18822   18831       2
   18834   18843       2   18846   18855       2   18858   18867       2   18870
   18879       2   18882   18891       2   18894   18903       2   18906   18915
       2   18918   18927       2   18930   18939       2   18942   18951       2
   18954   18963       2   18966   18975       2   18978   18987       2   18990
   18999       2   19002   19011       2   19014   19023       2   19026   19035
       2   19038   19047       2   19050   19059       2   19062   19071       2
   19074   19083       2   19086   19095       2   19098   19107       2   19110
   19119       2   19122   19131       2   19134   19143       2   19146   19155
       2   19158   19167       2   19170   19179       2   19182   19191       2
   19194   19203       2   19206   19215       2   19218   19227       2   19230
   19239       2   19242   19251       2   19254   19263       2   19266   19275
       2   19278   19287       2   19290   19299       2   19302   19311       2
   19314   19323       2   19326   19335       2   19338   19347       2   19350
   19359       2   19362   19371       2   19374   19383       2   19386   19395
       2   19398   19407       2   19410   19419       2   19422   19431       2
   19434   19443       2   19446   19455       2   19458   19467       2   19470
   19479       2   19482   19491       2   19494   19503       2   19506   19515
       2   19518   19527       2   19530   19539       2   19542   19551       2
   19554   19563       2   19566   19575       2   19578   19587       2   19590
   19599       2   19602   19611       2   19614   19623       2   19626   19635
       2   19638   19647       2   19650   19659       2   19662   19671       2
   19674   19683       2   19686   19695       2   19698   19707       2   19710
   19719       2   19722   19731       2   19734   19743       2   19746   19755
       2   19758   19767       2   19770   19779       2   19782   19791       2
   19794   19803       2   19806   19815       2   19818   19827       2   19830
   19839       2   19842   19851       2   19854   19863       2   19866   19875
       2   19878   19887       2   19890   19899       2   19902   19911       2
   19914   19923       2   19926   19935       2   19938   19947       2   19950
   19959       2   19962   19971       2   19974   19983       2   19986   19995
       2   19998   20007       2   20010   20019       2   20022   20031       2
   20034   20043       2   20046   20055       2   20058   20067       2   20070
   20079       2   20082   20091       2   20094   20103       2   20106   20115
       2   20118   20127       2   20130   20139       2   20142   20151       2
   20154   20163       2   20166   20175       2   20178   20187       2   20190
   20199       2   20202   20211       2   20214   20223       2   20226   20235
       2   20238   20247       2   20250   20259       2   20262   20271       2
   20274   20283       2   20286   20295       2   20298   20307       2   20310
   20319       2   20322   20331       2   20334   20343       2   20346   20355
       2   20358   20367       2   20370   20379       2   20382   20391       2
   20394   20403       2   20406   20415       2   20418   20427       2   20430
   20439       2   20442   20451       2   20454   20463       2   20466   20475
       2   20478   20487       2   20490   20499       2   20502   20511       2
   20514   20523       2   20526   20535       2   20538   20547       2   20550
   20559       2   20562   20571       2   20574   20583       2   20586   20595
       2   20598   20607       2   20610   20619       2   20622   20631       2
   20634   20643       2   20646   20655       2   20658   20667       2   20670
   20679       2   20682   20691       2   20694   20703       2   20706   20715
       2   20718   20727       2   20730   20739       2   20742   20751       2
   20754   20763       2   20766   20775       2   20778   20787       2   20790
   20799       2   20802   20811       2   20814   20823       2   20826   20835
       2   20838   20847       2   20850   20859       2   20862   20871       2
   20874   20883       2   20886   20895       2   20898   20907       2   20910
   20919       2   20922   20931       2   20934   20943       2   20946   20955
       2   20958   20967       2   20970   20979       2   20982   20991       2
   20994   21003       2   21006   21015       2   21018   21027       2   21030
   21039       2   21042   21051       2   21054   21063       2   21066   21075
       2   21078   21087       2   21090   21099       2   21102   21111       2
   21114   21123       2   21126   21135       2   21138   21147       2   21150
   21159       2   21162   21171       2   21174   21183       2   21186   21195
       2   21198   21207       2   21210   21219       2   21222   21231       2
   21234   21243       2   21246   21255       2   21258   21267       2   21270
   21279       2   21282   21291       2   21294   21303       2   21306   21315
       2   21318   21327       2   21330   21339       2   21342   21351       2
   21354   21363       2   21366   21375       2   21378   21387       2   21390
   21399       2   21402   21411       2   21414   21423       2   21426   21435
       2   21438   21447       2   21450   21459       2   21462   21471       2
   21474   21483       2   21486   21495       2   21498   21507       2   21510
   21519       2   21522   21531       2   21534   21543       2   21546   21555
       2   21558   21567       2   21570   21579       2   21582   21591       2
   21594   21603       2   21606   21615       2   21618   21627       2   21630
   21639       2   21642   21651       2   21654   21663       2   21666   21675
       2   21678   21687       2   21690   21699       2   21702   21711       2
   21714   21723       2   21726   21735       2   21738   21747       2   21750
   21759       2   21762   21771       2   21774   21783       2   21786   21795
       2   21798   21807       2   21810   21819       2   21822   21831       2
   21834   21843       2   21846   21855       2   21858   21867       2   21870
   21879       2   21882   21891       2   21894   21903       2   21906   21915
       2   21918   21927       2   21930   21939       2   21942   21951       2
   21954   21963       2   21966   21975       2   21978   21987       2   21990
   21999       2   22002   22011       2   22014   22023       2   22026   22035
       2   22038   22047       2   22050   22059       2   22062   22071       2
   22074   22083       2   22086   22095       2   22098   22107       2   22110
   22119       2   22122   22131       2   22134   22143       2   22146   22155
       2   22158   22167       2   22170   22179       2   22182   22191       2
   22194   22203       2   22206   22215       2   22218   22227       2   22230
   22239       2   22242   22251       2   22254   22263       2   22266   22275
       2   22278   22287       2   22290   22299       2   22302   22311       2
   22314   22323       2   22326   22335       2   22338   22347       2   22350
   22359       2   22362   22371       2   22374   22383       2   22386   22395
       2   22398   22407       2   22410   22419       2   22422   22431       2
   22434   22443       2   22446   22455       2   22458   22467       2   22470
   22479       2   22482   22491       2   22494   22503       2   22506   22515
       2   22518   22527       2   22530   22539       2   22542   22551       2
   22554   22563       2   22566   22575       2   22578   22587       2   22590
   22599       2   22602   22611       2   22614   22623       2   22626   22635
       2   22638   22647       2   22650   22659       2   22662   22671       2
   22674   22683       2   22686   22695       2   22698   22707       2   22710
   22719       2   22722   22731       2   22734   22743       2   22746   22755
       2   22758   22767       2   22770   22779       2   22782   22791       2
   22794   22803       2   22806   22815       2   22818   22827       2   22830
   22839       2   22842   22851       2   22854   22863       2   22866   22875
       2   22878   22887       2   22890   22899       2   22902   22911       2
   22914   22923       2   22926   22935       2   22938   22947       2   22950
   22959       2   22962   22971       2   22974   22983       2   22986   22995
       2   22998   23007       2   23010   23019       2   23022   23031       2
   23034   23043       2   23046   23055       2   23058   23067       2   23070
   23079       2   23082   23091       2   23094   23103       2   23106   23115
       2   23118   23127       2   23130   23139       2   23142   23151       2
   23154   23163       2   23166   23175       2   23178   23187       2   23190
   23199       2   23202   23211       2   23214   23223       2   23226   23235
       2   23238   23247       2   23250   23259       2   23262   23271       2
   23274   23283       2   23286   23295       2   23298   23307       2   23310
   23319       2   23322   23331       2   23334   23343       2   23346   23355
       2   23358   23367       2   23370   23379       2   23382   23391       2
   23394   23403       2   23406   23415       2   23418   23427       2   23430
   23439       2   23442   23451       2   23454   23463       2   23466   23475
       2   23478   23487       2   23490   23499       2   23502   23511       2
   23514   23523       2   23526   23535       2   23538   23547       2   23550
   23559       2   23562   23571       2   23574   23583       2   23586   23595
       2   23598   23607       2   23610   23619       2   23622   23631       2
   23634   23643       2   23646   23655       2   23658   23667       2   23670
   23679       2   23682   23691       2   23694   23703       2   23706   23715
       2   23718   23727       2   23730   23739       2   23742   23751       2
   23754   23763       2   23766   23775       2   23778   23787       2   23790
   23799       2   23802   23811       2   23814   23823       2   23826   23835
       2   23838   23847       2   23850   23859       2   23862   23871       2
   23874   23883       2   23886   23895       2   23898   23907       2   23910
   23919       2   23922   23931       2   23934   23943       2   23946   23955
       2   23958   23967       2   23970   23979       2   23982   23991       2
   23994   24003       2   24006   24015       2   24018   24027       2   24030
   24039       2   24042   24051       2   24054   24063       2   24066   24075
       2   24078   24087       2   24090   24099       2   24102   24111       2
   24114   24123       2   24126   24135       2   24138   24147       2   24150
   24159       2   24162   24171       2   24174   24183       2   24186   24195
       2   24198   24207       2   24210   24219       2   24222   24231       2
   24234   24243       2   24246   24255       2   24258   24267       2   24270
   24279       2   24282   24291       2   24294   24303       2   24306   24315
       2   24318   24327       2   24330   24339       2   24342   24351       2
   24354   24363       2   24366   24375       2   24378   24387       2   24390
   24399       2   24402   24411       2   24414   24423       2   24426   24435
       2   24438   24447       2   24450   24459       2   24462   24471       2
   24474   24483       2   24486   24495       2   24498   24507       2   24510
   24519       2   24522   24531       2   24534   24543       2   24546   24555
       2   24558   24567       2   24570   24579       2   24582   24591       2
   24594   24603       2   24606   24615       2   24618   24627       2   24630
   24639       2   24642   24651       2   24654   24663       2   24666   24675
       2   24678   24687       2   24690   24699       2   24702   24711       2
   24714   24723       2   24726   24735       2   24738   24747       2   24750
   24759       2   24762   24771       2   24774   24783       2   24786   24795
       2   24798   24807       2   24810   24819       2   24822   24831       2
   24834   24843       2   24846   24855       2   24858   24867       2   24870
   24879       2   24882   24891       2   24894   24903       2   24906   24915
       2   24918   24927       2   24930   24939       2   24942   24951       2
   24954   24963       2   24966   24975       2   24978   24987       2   24990
   24999       2   25002   25011       2   25014   25023       2   25026   25035
       2   25038   25047       2   25050   25059       2   25062   25071       2
   25074   25083       2   25086   25095       2   25098   25107       2   25110
   25119       2   25122   25131       2   25134   25143       2   25146   25155
       2   25158   25167       2   25170   25179       2   25182   25191       2
   25194   25203       2   25206   25215       2   25218   25227       2   25230
   25239       2   25242   25251       2   25254   25263       2   25266   25275
       2   25278   25287       2   25290   25299       2   25302   25311       2
   25314   25323       2   25326   25335       2   25338   25347       2   25350
   25359       2   25362   25371       2   25374   25383       2   25386   25395
       2   25398   25407       2   25410   25419       2   25422   25431       2
   25434   25443       2   25446   25455       2   25458   25467       2   25470
   25479       2   25482   25491       2   25494   25503       2   25506   25515
       2   25518   25527       2   25530   25539       2   25542   25551       2
   25554   25563       2   25566   25575       2   25578   25587       2   25590
   25599       2   25602   25611       2   25614   25623       2   25626   25635
       2   25638   25647       2   25650   25659       2   25662   25671       2
   25674   25683       2   25686   25695       2   25698   25707       2   25710
   25719       2   25722   25731       2   25734   25743       2   25746   25755
       2   25758   25767       2   25770   25779       2   25782   25791       2
   25794   25803       2   25806   25815       2   25818   25827       2   25830
   25839       2   25842   25851       2   25854   25863       2   25866   25875
       2   25878   25887       2   25890   25899       2   25902   25911       2
   25914   25923       2   25926   25935       2   25938   25947       2   25950
   25959       2   25962   25971       2   25974   25983       2   25986   25995
       2   25998   26007       2   26010   26019       2   26022   26031       2
   26034   26043       2   26046   26055       2   26058   26067       2   26070
   26079       2   26082   26091       2   26094   26103       2   26106   26115
       2   26118   26127       2   26130   26139       2   26142   26151       2
   26154   26163       2   26166   26175       2   26178   26187       2   26190
   26199       2   26202   26211       2   26214   26223       2   26226   26235
       2   26238   26247       2   26250   26259       2   26262   26271       2
   26274   26283       2      78      81       5      75      78       7      72
      75       8      69      72       9      69      81       5      66      69
      10      60      63      12      57      60      12      54      57      12
      51      54      12      48      51      12      48      63      12      45
      48      13      42      45      15      39      42      16      39      66
      17      36      39      18      33      36      20      33      72      21
      30      33      22
%FLAG ANGLES_INC_HYDROGEN                                                       
%FORMAT(10I8)                                                                   
      81      78     108       1      78      81     111       2      75      78
     108       4      69      81     111       2      63      60     102      11
      60      57      99      11      60      63     105      11      57      54
      96      11      57      60     102      11      54      51      93      11
      54      57      99      11      51      54      96      11      48      45
      90      13      48      51      93      11      48      63     105      11
      45      42      87      14      42      45      90      14      39      36
      84      18      39      42      87      20      33      36      84      26
%FLAG ANGLES_WITHOUT_HYDROGEN                                                   
%FORMAT(10I8)                                                                   
      75      78      81       3      72      69      81       5      72      75
      78       6      69      72      75       7      69      81      78       8
      66      69      72       9      66      69      81      10      57      60
      63      12      54      57      60      12      51      48      63      12
      51      54      57      12      48      51      54      12      48      63
      60      12      45      48      51      15      45      48      63      15
      42      39      66      16      42      45      48      17      39      42
      45      19      39      66      69      21      36      33      72      22
      36      39      42      23      36      39      66      24      33      36
      39      25      33      72      69      27      33      72      75      28
      30      33      36      29      30      33      72      30
%FLAG DIHEDRALS_INC_HYDROGEN                                                    
%FORMAT(10I8)                                                                   
     108      78      81     111       1     102      60      63     105       2
      99      57      60     102       2      96      54      57      99       2
      93      51      54      96       2      87      42      45      90       3
      75      78      81     111       1      72      33      36      84       5
      72      69      81     111       1      72      75      78     108       6
      69      81      78     108       1      66      39      36      84       7
      66      39      42      87       8      66      69      81     111       1
      63      48      45      90       8      63      48      51      93       2
      63      60      57      99       2      60      57      54      96       2
      57      54      51      93       2      57      60      63     105       2
      54      57      60     102       2      51      48      45      90       8
      51      48      63     105       2      51      54      57      99       2
      48      45      42      87       3      48      51      54      96       2
      48      63      60     102       2      45      48      51      93       2
      45      48      63     105       2      42      39      36      84       7
      39      42      45      90       3      36      39      42      87       8
      30      33      36      84      10      30      33     -36      84       5
      69      78     -81    -111      11     108      81     -78     -75      11
      48      60     -63    -105      11      57      63     -60    -102      11
      54      60     -57     -99      11      51      57     -54     -96      11
      48      54     -51     -93      11      48      90     -45     -42      11
      39      87     -42     -45      11      33      39     -36     -84      11
%FLAG DIHEDRALS_WITHOUT_HYDROGEN                                                
%FORMAT(10I8)                                                                   
      75      72     -69      81       4      72      69     -81      78       1
      72      75     -78      81       6      69      72     -75      78       6
      69      81     -78      75       1      66      69      72      75       4
      66      69      81      78       1      54      51      48      63       2
      54      57     -60      63       2      51      48      63      60       2
      51      54     -57      60       2      48      51      54      57       2
      48      63     -60      57       2      45      42      39      66       8
      45      48      51      54       2      45      48      63      60       2
      42      39      66      69       6      42      45      48      51       8
      42      45      48      63       8      39      36      33      72       5
      39      42      45      48       3      39      66     -69      72       6
      39      66      69      81       6      36      33      72      69       9
      36      33      72      75       9      36      39      42      45       8
      36      39     -66      69       6      33      36      39      42       7
      33      36      39      66       7      33      72     -69      66       4
      33      72      69      81       4      33      72      75      78       6
      30      33      36      39       5      30      33      72      69       9
      30      33      72      75       9      33      69     -72     -75      11
      72      81     -69     -66      11      51      63     -48     -45      11
      66      36     -39     -42      11      72      36     -33     -30      12
%FLAG EXCLUDED_ATOMS_LIST                                                       
%FORMAT(10I8)                                                                   
       0       0       0       0       0       0       0       0       0       0
      12      13      14      24      25      26      29      13      14      15
      23      24      25      26      27      28      29      14      15      16
      23      24      25      26      29      30      15      16      17      23
      24      25      28      29      30      31      16      17      18      22
      23      24      29      30      31      17      18      19      21      22
      23      30      31      32      36      18      19      20      21      22
      30      31      32      33      35      36      19      20      21      22
      31      32      33      34      36      20      21      22      32      33
      34      35      21      22      32      33      34      35      36      22
      33      34      35      36      31      32      34      35      36      24
      25      26      27      28      29      30      38      25      26      27
      28      37      38      26      27      28      29      37      38      27
      28      37      38      28      37      38      37      38       0      31
       0      33      34      35      36       0      38       0      40      41
      42      41      42      42       0      44      45      46      45      46
      46       0      48      49      50      49      50      50       0      52
      53      54      53      54      54       0      56      57      58      57
      58      58       0      60      61      62      61      62      62       0
      64      65      66      65      66      66       0      68      69      70
      69      70      70       0      72      73      74      73      74      74
       0      76      77      78      77      78      78       0      80      81
      82      81      82      82       0      84      85      86      85      86
      86       0      88      89      90      89      90      90       0      92
      93      94      93      94      94       0      96      97      98      97
      98      98       0     100     101     102     101     102     102       0
     104     105     106     105     106     106       0     108     109     110
     109     110     110       0     112     113     114     113     114     114
       0     116     117     118     117     118     118       0     120     121
     122     121     122     122       0     124     125     126     125     126
     126       0     128     129     130     129     130     130       0     132
     133     134     133     134     134       0     136     137     138     137
     138     138       0     140     141     142     141     142     142       0
     144     145     146     145     146     146       0     148     149     150
     149     150     150       0     152     153     154     153     154     154
       0     156     157     158     157     158     158       0     160     161
     162     161     162     162       0     164     165     166     165     166
     166       0     168     169     170     169     170     170       0     172
     173     174     173     174     174       0     176     177     178     177
     178     178       0     180     181     182     181     182     182       0
     184     185     186     185     186     186       0     188     189     190
     189     190     190       0     192     193     194     193     194     194
       0     196     197     198     197     198     198       0     200     201
     202     201     202     202       0     204     205     206     205     206
     206       0     208     209     210     209     210     210       0     212
     213     214     213     214     214       0     216     217     218     217
     218     218       0     220     221     222     221     222     222       0
     224     225     226     225     226     226       0     228     229     230
     229     230     230       0     232     233     234     233     234     234
       0     236     237     238     237     238     238       0     240     241
     242     241     242     242       0     244     245     246     245     246
     246       0     248     249     250     249     250     250       0     252
     253     254     253     254     254       0     256     257     258     257
     258     258       0     260     261     262     261     262     262       0
     264     265     266     265     266     266       0     268     269     270
     269     270     270       0     272     273     274     273     274     274
       0     276     277     278     277     278     278       0     280     281
     282     281     282     282       0     284     285     286     285     286
     286       0     288     289     290     289     290     290       0     292
     293     294     293     294     294       0     296     297     298     297
     298     298       0     300     301     302     301     302     302       0
     304     305     306     305     306     306       0     308     309     310
     309     310     310       0     312     313     314     313     314     314
       0     316     317     318     317     318     318       0     320     321
     322     321     322     322       0     324     325     326     325     326
     326       0     328     329     330     329     330     330       0     332
     333     334     333     334     334       0     336     337     338     337
     338     338       0     340     341     342     341     342     342       0
     344     345     346     345     346     346       0     348     349     350
     349     350     350       0     352     353     354     353     354     354
       0     356     357     358     357     358     358       0     360     361
     362     361     362     362       0     364     365     366     365     366
     366       0     368     369     370     369     370     370       0     372
     373     374     373     374     374       0     376     377     378     377
     378     378       0     380     381     382     381     382     382       0
     384     385     386     385     386     386       0     388     389     390
     389     390     390       0     392     393     394     393     394     394
       0     396     397     398     397     398     398       0     400     401
     402     401     402     402       0     404     405     406     405     406
     406       0     408     409     410     409     410     410       0     412
     413     414     413     414     414       0     416     417     418     417
     418     418       0     420     421     422     421     422     422       0
     424     425     426     425     426     426       0     428     429     430
     429     430     430       0     432     433     434     433     434     434
       0     436     437     438     437     438     438       0     440     441
     442     441     442     442       0     444     445     446     445     446
     446       0     448     449     450     449     450     450       0     452
     453     454     453     454     454       0     456     457     458     457
     458     458       0     460     461     462     461     462     462       0
     464     465     466     465     466     466       0     468     469     470
     469     470     470       0     472     473     474     473     474     474
       0     476     477     478     477     478     478       0     480     481
     482     481     482     482       0     484     485     486     485     486
     486       0     488     489     490     489     490     490       0     492
     493     494     493     494     494       0     496     497     498     497
     498     498       0     500     501     502     501     502     502       0
     504     505     506     505     506     506       0     508     509     510
     509     510     510       0     512     513     514     513     514     514
       0     516     517     518     517     518     518       0     520     521
     522     521     522     522       0     524     525     526     525     526
     526       0     528     529     530     529     530     530       0     532
     533     534     533     534     534       0     536     537     538     537
     538     538       0     540     541     542     541     542     542       0
     544     545     546     545     546     546       0     548     549     550
     549     550     550       0     552     553     554     553     554     554
       0     556     557     558     557     558     558       0     560     561
     562     561     562     562       0     564     565     566     565     566
     566       0     568     569     570     569     570     570       0     572
     573     574     573     574     574       0     576     577     578     577
     578     578       0     580     581     582     581     582     582       0
     584     585     586     585     586     586       0     588     589     590
     589     590     590       0     592     593     594     593     594     594
       0     596     597     598     597     598     598       0     600     601
     602     601     602     602       0     604     605     606     605     606
     606       0     608     609     610     609     610     610       0     612
     613     614     613     614     614       0     616     617     618     617
     618     618       0     620     621     622     621     622     622       0
     624     625     626     625     626     626       0     628     629     630
     629     630     630       0     632     633     634     633     634     634
       0     636     637     638     637     638     638       0     640     641
     642     641     642     642       0     644     645     646     645     646
     646       0     648     649     650     649     650     650       0     652
     653     654     653     654     654       0     656     657     658     657
     658     658       0     660     661     662     661     662     662       0
     664     665     666     665     666     666       0     668     669     670
     669     670     670       0     672     673     674     673     674     674
       0     676     677     678     677     678     678       0     680     681
     682     681     682     682       0     684     685     686     685     686
     686       0     688     689     690     689     690     690       0     692
     693     694     693     694     694       0     696     697     698     697
     698     698       0     700     701     702     701     702     702       0
     704     705     706     705     706     706       0     708     709     710
     709     710     710       0     712     713     714     713     714     714
       0     716     717     718     717     718     718       0     720     721
     722     721     722     722       0     724     725     726     725     726
     726       0     728     729     730     729     730     730       0     732
     733     734     733     734     734       0     736     737     738     737
     738     738       0     740     741     742     741     742     742       0
     744     745     746     745     746     746       0     748     749     750
     749     750     750       0     752     753     754     753     754     754
       0     756     757     758     757     758     758       0     760     761
     762     761     762     762       0     764     765     766     765     766
     766       0     768     769     770     769     770     770       0     772
     773     774     773     774     774       0     776     777     778     777
     778     778       0     780     781     782     781     782     782       0
     784     785     786     785     786     786       0     788     789     790
     789     790     790       0     792     793     794     793     794     794
       0     796     797     798     797     798     798       0     800     801
     802     801     802     802       0     804     805     806     805     806
     806       0     808     809     810     809     810     810       0     812
     813     814     813     814     814       0     816     817     818     817
     818     818       0     820     821     822     821     822     822       0
     824     825     826     825     826     826       0     828     829     830
     829     830     830       0     832     833     834     833     834     834
       0     836     837     838     837     838     838       0     840     841
     842     841     842     842       0     844     845     846     845     846
     846       0     848     849     850     849     850     850       0     852
     853     854     853     854     854       0     856     857     858     857
     858     858       0     860     861     862     861     862     862       0
     864     865     866     865     866     866       0     868     869     870
     869     870     870       0     872     873     874     873     874     874
       0     876     877     878     877     878     878       0     880     881
     882     881     882     882       0     884     885     886     885     886
     886       0     888     889     890     889     890     890       0     892
     893     894     893     894     894       0     896     897     898     897
     898     898       0     900     901     902     901     902     902       0
     904     905     906     905     906     906       0     908     909     910
     909     910     910       0     912     913     914     913     914     914
       0     916     917     918     917     918     918       0     920     921
     922     921     922     922       0     924     925     926     925     926
     926       0     928     929     930     929     930     930       0     932
     933     934     933     934     934       0     936     937     938     937
     938     938       0     940     941     942     941     942     942       0
     944     945     946     945     946     946       0     948     949     950
     949     950     950       0     952     953     954     953     954     954
       0     956     957     958     957     958     958       0     960     961
     962     961     962     962       0     964     965     966     965     966
     966       0     968     969     970     969     970     970       0     972
     973     974     973     974     974       0     976     977     978     977
     978     978       0     980     981     982     981     982     982       0
     984     985     986     985     986     986       0     988     989     990
     989     990     990       0     992     993     994     993     994     994
       0     996     997     998     997     998     998       0    1000    1001
    1002    1001    1002    1002       0    1004    1005    1006    1005    1006
    1006       0    1008    1009    1010    1009    1010    1010       0    1012
    1013    1014    1013    1014    1014       0    1016    1017    1018    1017
    1018    1018       0    1020    1021    1022    1021    1022    1022       0
    1024    1025    1026    1025    1026    1026       0    1028    1029    1030
    1029    1030    1030       0    1032    1033    1034    1033    1034    1034
       0    1036    1037    1038    1037    1038    1038       0    1040    1041
    1042    1041    1042    1042       0    1044    1045    1046    1045    1046
    1046       0    1048    1049    1050    1049    1050    1050       0    1052
    1053    1054    1053    1054    1054       0    1056    1057    1058    1057
    1058    1058       0    1060    1061    1062    1061    1062    1062       0
    1064    1065    1066    1065    1066    1066       0    1068    1069    1070
    1069    1070    1070       0    1072    1073    1074    1073    1074    1074
       0    1076    1077    1078    1077    1078    1078       0    1080    1081
    1082    1081    1082    1082       0    1084    1085    1086    1085    1086
    1086       0    1088    1089    1090    1089    1090    1090       0    1092
    1093    1094    1093    1094    1094       0    1096    1097    1098    1097
    1098    1098       0    1100    1101    1102    1101    1102    1102       0
    1104    1105    1106    1105    1106    1106       0    1108    1109    1110
    1109    1110    1110       0    1112    1113    1114    1113    1114    1114
       0    1116    1117    1118    1117    1118    1118       0    1120    1121
    1122    1121    1122    1122       0    1124    1125    1126    1125    1126
    1126       0    1128    1129    1130    1129    1130    1130       0    1132
    1133    1134    1133    1134    1134       0    1136    1137    1138    1137
    1138    1138       0    1140    1141    1142    1141    1142    1142       0
    1144    1145    1146    1145    1146    1146       0    1148    1149    1150
    1149    1150    1150       0    1152    1153    1154    1153    1154    1154
       0    1156    1157    1158    1157    1158    1158       0    1160    1161
    1162    1161    1162    1162       0    1164    1165    1166    1165    1166
    1166       0    1168    1169    1170    1169    1170    1170       0    1172
    1173    1174    1173    1174    1174       0    1176    1177    1178    1177
    1178    1178       0    1180    1181    1182    1181    1182    1182       0
    1184    1185    1186    1185    1186    1186       0    1188    1189    1190
    1189    1190    1190       0    1192    1193    1194    1193    1194    1194
       0    1196    1197    1198    1197    1198    1198       0    1200    1201
    1202    1201    1202    1202       0    1204    1205    1206    1205    1206
    1206       0    1208    1209    1210    1209    1210    1210       0    1212
    1213    1214    1213    1214    1214       0    1216    1217    1218    1217
    1218    1218       0    1220    1221    1222    1221    1222    1222       0
    1224    1225    1226    1225    1226    1226       0    1228    1229    1230
    1229    1230    1230       0    1232    1233    1234    1233    1234    1234
       0    1236    1237    1238    1237    1238    1238       0    1240    1241
    1242    1241    1242    1242       0    1244    1245    1246    1245    1246
    1246       0    1248    1249    1250    1249    1250    1250       0    1252
    1253    1254    1253    1254    1254       0    1256    1257    1258    1257
    1258    1258       0    1260    1261    1262    1261    1262    1262       0
    1264    1265    1266    1265    1266    1266       0    1268    1269    1270
    1269    1270    1270       0    1272    1273    1274    1273    1274    1274
       0    1276    1277    1278    1277    1278    1278       0    1280    1281
    1282    1281    1282    1282       0    1284    1285    1286    1285    1286
    1286       0    1288    1289    1290    1289    1290    1290       0    1292
    1293    1294    1293    1294    1294       0    1296    1297    1298    1297
    1298    1298       0    1300    1301    1302    1301    1302    1302       0
    1304    1305    1306    1305    1306    1306       0    1308    1309    1310
    1309    1310    1310       0    1312    1313    1314    1313    1314    1314
       0    1316    1317    1318    1317    1318    1318       0    1320    1321
    1322    1321    1322    1322       0    1324    1325    1326    1325    1326
    1326       0    1328    1329    1330    1329    1330    1330       0    1332
    1333    1334    1333    1334    1334       0    1336    1337    1338    1337
    1338    1338       0    1340    1341    1342    1341    1342    1342       0
    1344    1345    1346    1345    1346    1346       0    1348    1349    1350
    1349    1350    1350       0    1352    1353    1354    1353    1354    1354
       0    1356    1357    1358    1357    1358    1358       0    1360    1361
    1362    1361    1362    1362       0    1364    1365    1366    1365    1366
    1366       0    1368    1369    1370    1369    1370    1370       0    1372
    1373    1374    1373    1374    1374       0    1376    1377    1378    1377
    1378    1378       0    1380    1381    1382    1381    1382    1382       0
    1384    1385    1386    1385    1386    1386       0    1388    1389    1390
    1389    1390    1390       0    1392    1393    1394    1393    1394    1394
       0    1396    1397    1398    1397    1398    1398       0    1400    1401
    1402    1401    1402    1402       0    1404    1405    1406    1405    1406
    1406       0    1408    1409    1410    1409    1410    1410       0    1412
    1413    1414    1413    1414    1414       0    1416    1417    1418    1417
    1418    1418       0    1420    1421    1422    1421    1422    1422       0
    1424    1425    1426    1425    1426    1426       0    1428    1429    1430
    1429    1430    1430       0    1432    1433    1434    1433    1434    1434
       0    1436    1437    1438    1437    1438    1438       0    1440    1441
    1442    1441    1442    1442       0    1444    1445    1446    1445    1446
    1446       0    1448    1449    1450    1449    1450    1450       0    1452
    1453    1454    1453    1454    1454       0    1456    1457    1458    1457
    1458    1458       0    1460    1461    1462    1461    1462    1462       0
    1464    1465    1466    1465    1466    1466       0    1468    1469    1470
    1469    1470    1470       0    1472    1473    1474    1473    1474    1474
       0    1476    1477    1478    1477    1478    1478       0    1480    1481
    1482    1481    1482    1482       0    1484    1485    1486    1485    1486
    1486       0    1488    1489    1490    1489    1490    1490       0    1492
    1493    1494    1493    1494    1494       0    1496    1497    1498    1497
    1498    1498       0    1500    1501    1502    1501    1502    1502       0
    1504    1505    1506    1505    1506    1506       0    1508    1509    1510
    1509    1510    1510       0    1512    1513    1514    1513    1514    1514
       0    1516    1517    1518    1517    1518    1518       0    1520    1521
    1522    1521    1522    1522       0    1524    1525    1526    1525    1526
    1526       0    1528    1529    1530    1529    1530    1530       0    1532
    1533    1534    1533    1534    1534       0    1536    1537    1538    1537
    1538    1538       0    1540    1541    1542    1541    1542    1542       0
    1544    1545    1546    1545    1546    1546       0    1548    1549    1550
    1549    1550    1550       0    1552    1553    1554    1553    1554    1554
       0    1556    1557    1558    1557    1558    1558       0    1560    1561
    1562    1561    1562    1562       0    1564    1565    1566    1565    1566
    1566       0    1568    1569    1570    1569    1570    1570       0    1572
    1573    1574    1573    1574    1574       0    1576    1577    1578    1577
    1578    1578       0    1580    1581    1582    1581    1582    1582       0
    1584    1585    1586    1585    1586    1586       0    1588    1589    1590
    1589    1590    1590       0    1592    1593    1594    1593    1594    1594
       0    1596    1597    1598    1597    1598    1598       0    1600    1601
    1602    1601    1602    1602       0    1604    1605    1606    1605    1606
    1606       0    1608    1609    1610    1609    1610    1610       0    1612
    1613    1614    1613    1614    1614       0    1616    1617    1618    1617
    1618    1618       0    1620    1621    1622    1621    1622    1622       0
    1624    1625    1626    1625    1626    1626       0    1628    1629    1630
    1629    1630    1630       0    1632    1633    1634    1633    1634    1634
       0    1636    1637    1638    1637    1638    1638       0    1640    1641
    1642    1641    1642    1642       0    1644    1645    1646    1645    1646
    1646       0    1648    1649    1650    1649    1650    1650       0    1652
    1653    1654    1653    1654    1654       0    1656    1657    1658    1657
    1658    1658       0    1660    1661    1662    1661    1662    1662       0
    1664    1665    1666    1665    1666    1666       0    1668    1669    1670
    1669    1670    1670       0    1672    1673    1674    1673    1674    1674
       0    1676    1677    1678    1677    1678    1678       0    1680    1681
    1682    1681    1682    1682       0    1684    1685    1686    1685    1686
    1686       0    1688    1689    1690    1689    1690    1690       0    1692
    1693    1694    1693    1694    1694       0    1696    1697    1698    1697
    1698    1698       0    1700    1701    1702    1701    1702    1702       0
    1704    1705    1706    1705    1706    1706       0    1708    1709    1710
    1709    1710    1710       0    1712    1713    1714    1713    1714    1714
       0    1716    1717    1718    1717    1718    1718       0    1720    1721
    1722    1721    1722    1722       0    1724    1725    1726    1725    1726
    1726       0    1728    1729    1730    1729    1730    1730       0    1732
    1733    1734    1733    1734    1734       0    1736    1737    1738    1737
    1738    1738       0    1740    1741    1742    1741    1742    1742       0
    1744    1745    1746    1745    1746    1746       0    1748    1749    1750
    1749    1750    1750       0    1752    1753    1754    1753    1754    1754
       0    1756    1757    1758    1757    1758    1758       0    1760    1761
    1762    1761    1762    1762       0    1764    1765    1766    1765    1766
    1766       0    1768    1769    1770    1769    1770    1770       0    1772
    1773    1774    1773    1774    1774       0    1776    1777    1778    1777
    1778    1778       0    1780    1781    1782    1781    1782    1782       0
    1784    1785    1786    1785    1786    1786       0    1788    1789    1790
    1789    1790    1790       0    1792    1793    1794    1793    1794    1794
       0    1796    1797    1798    1797    1798    1798       0    1800    1801
    1802    1801    1802    1802       0    1804    1805    1806    1805    1806
    1806       0    1808    1809    1810    1809    1810    1810       0    1812
    1813    1814    1813    1814    1814       0    1816    1817    1818    1817
    1818    1818       0    1820    1821    1822    1821    1822    1822       0
    1824    1825    1826    1825    1826    1826       0    1828    1829    1830
    1829    1830    1830       0    1832    1833    1834    1833    1834    1834
       0    1836    1837    1838    1837    1838    1838       0    1840    1841
    1842    1841    1842    1842       0    1844    1845    1846    1845    1846
    1846       0    1848    1849    1850    1849    1850    1850       0    1852
    1853    1854    1853    1854    1854       0    1856    1857    1858    1857
    1858    1858       0    1860    1861    1862    1861    1862    1862       0
    1864    1865    1866    1865    1866    1866       0    1868    1869    1870
    1869    1870    1870       0    1872    1873    1874    1873    1874    1874
       0    1876    1877    1878    1877    1878    1878       0    1880    1881
    1882    1881    1882    1882       0    1884    1885    1886    1885    1886
    1886       0    1888    1889    1890    1889    1890    1890       0    1892
    1893    1894    1893    1894    1894       0    1896    1897    1898    1897
    1898    1898       0    1900    1901    1902    1901    1902    1902       0
    1904    1905    1906    1905    1906    1906       0    1908    1909    1910
    1909    1910    1910       0    1912    1913    1914    1913    1914    1914
       0    1916    1917    1918    1917    1918    1918       0    1920    1921
    1922    1921    1922    1922       0    1924    1925    1926    1925    1926
    1926       0    1928    1929    1930    1929    1930    1930       0    1932
    1933    1934    1933    1934    1934       0    1936    1937    1938    1937
    1938    1938       0    1940    1941    1942    1941    1942    1942       0
    1944    1945    1946    1945    1946    1946       0    1948    1949    1950
    1949    1950    1950       0    1952    1953    1954    1953    1954    1954
       0    1956    1957    1958    1957    1958    1958       0    1960    1961
    1962    1961    1962    1962       0    1964    1965    1966    1965    1966
    1966       0    1968    1969    1970    1969    1970    1970       0    1972
    1973    1974    1973    1974    1974       0    1976    1977    1978    1977
    1978    1978       0    1980    1981    1982    1981    1982    1982       0
    1984    1985    1986    1985    1986    1986       0    1988    1989    1990
    1989    1990    1990       0    1992    1993    1994    1993    1994    1994
       0    1996    1997    1998    1997    1998    1998       0    2000    2001
    2002    2001    2002    2002       0    2004    2005    2006    2005    2006
    2006       0    2008    2009    2010    2009    2010    2010       0    2012
    2013    2014    2013    2014    2014       0    2016    2017    2018    2017
    2018    2018       0    2020    2021    2022    2021    2022    2022       0
    2024    2025    2026    2025    2026    2026       0    2028    2029    2030
    2029    2030    2030       0    2032    2033    2034    2033    2034    2034
       0    2036    2037    2038    2037    2038    2038       0    2040    2041
    2042    2041    2042    2042       0    2044    2045    2046    2045    2046
    2046       0    2048    2049    2050    2049    2050    2050       0    2052
    2053    2054    2053    2054    2054       0    2056    2057    2058    2057
    2058    2058       0    2060    2061    2062    2061    2062    2062       0
    2064    2065    2066    2065    2066    2066       0    2068    2069    2070
    2069    2070    2070       0    2072    2073    2074    2073    2074    2074
       0    2076    2077    2078    2077    2078    2078       0    2080    2081
    2082    2081    2082    2082       0    2084    2085    2086    2085    2086
    2086       0    2088    2089    2090    2089    2090    2090       0    2092
    2093    2094    2093    2094    2094       0    2096    2097    2098    2097
    2098    2098       0    2100    2101    2102    2101    2102    2102       0
    2104    2105    2106    2105    2106    2106       0    2108    2109    2110
    2109    2110    2110       0    2112    2113    2114    2113    2114    2114
       0    2116    2117    2118    2117    2118    2118       0    2120    2121
    2122    2121    2122    2122       0    2124    2125    2126    2125    2126
    2126       0    2128    2129    2130    2129    2130    2130       0    2132
    2133    2134    2133    2134    2134       0    2136    2137    2138    2137
    2138    2138       0    2140    2141    2142    2141    2142    2142       0
    2144    2145    2146    2145    2146    2146       0    2148    2149    2150
    2149    2150    2150       0    2152    2153    2154    2153    2154    2154
       0    2156    2157    2158    2157    2158    2158       0    2160    2161
    2162    2161    2162    2162       0    2164    2165    2166    2165    2166
    2166       0    2168    2169    2170    2169    2170    2170       0    2172
    2173    2174    2173    2174    2174       0    2176    2177    2178    2177
    2178    2178       0    2180    2181    2182    2181    2182    2182       0
    2184    2185    2186    2185    2186    2186       0    2188    2189    2190
    2189    2190    2190       0    2192    2193    2194    2193    2194    2194
       0    2196    2197    2198    2197    2198    2198       0    2200    2201
    2202    2201    2202    2202       0    2204    2205    2206    2205    2206
    2206       0    2208    2209    2210    2209    2210    2210       0    2212
    2213    2214    2213    2214    2214       0    2216    2217    2218    2217
    2218    2218       0    2220    2221    2222    2221    2222    2222       0
    2224    2225    2226    2225    2226    2226       0    2228    2229    2230
    2229    2230    2230       0    2232    2233    2234    2233    2234    2234
       0    2236    2237    2238    2237    2238    2238       0    2240    2241
    2242    2241    2242    2242       0    2244    2245    2246    2245    2246
    2246       0    2248    2249    2250    2249    2250    2250       0    2252
    2253    2254    2253    2254    2254       0    2256    2257    2258    2257
    2258    2258       0    2260    2261    2262    2261    2262    2262       0
    2264    2265    2266    2265    2266    2266       0    2268    2269    2270
    2269    2270    2270       0    2272    2273    2274    2273    2274    2274
       0    2276    2277    2278    2277    2278    2278       0    2280    2281
    2282    2281    2282    2282       0    2284    2285    2286    2285    2286
    2286       0    2288    2289    2290    2289    2290    2290       0    2292
    2293    2294    2293    2294    2294       0    2296    2297    2298    2297
    2298    2298       0    2300    2301    2302    2301    2302    2302       0
    2304    2305    2306    2305    2306    2306       0    2308    2309    2310
    2309    2310    2310       0    2312    2313    2314    2313    2314    2314
       0    2316    2317    2318    2317    2318    2318       0    2320    2321
    2322    2321    2322    2322       0    2324    2325    2326    2325    2326
    2326       0    2328    2329    2330    2329    2330    2330       0    2332
    2333    2334    2333    2334    2334       0    2336    2337    2338    2337
    2338    2338       0    2340    2341    2342    2341    2342    2342       0
    2344    2345    2346    2345    2346    2346       0    2348    2349    2350
    2349    2350    2350       0    2352    2353    2354    2353    2354    2354
       0    2356    2357    2358    2357    2358    2358       0    2360    2361
    2362    2361    2362    2362       0    2364    2365    2366    2365    2366
    2366       0    2368    2369    2370    2369    2370    2370       0    2372
    2373    2374    2373    2374    2374       0    2376    2377    2378    2377
    2378    2378       0    2380    2381    2382    2381    2382    2382       0
    2384    2385    2386    2385    2386    2386       0    2388    2389    2390
    2389    2390    2390       0    2392    2393    2394    2393    2394    2394
       0    2396    2397    2398    2397    2398    2398       0    2400    2401
    2402    2401    2402    2402       0    2404    2405    2406    2405    2406
    2406       0    2408    2409    2410    2409    2410    2410       0    2412
    2413    2414    2413    2414    2414       0    2416    2417    2418    2417
    2418    2418       0    2420    2421    2422    2421    2422    2422       0
    2424    2425    2426    2425    2426    2426       0    2428    2429    2430
    2429    2430    2430       0    2432    2433    2434    2433    2434    2434
       0    2436    2437    2438    2437    2438    2438       0    2440    2441
    2442    2441    2442    2442       0    2444    2445    2446    2445    2446
    2446       0    2448    2449    2450    2449    2450    2450       0    2452
    2453    2454    2453    2454    2454       0    2456    2457    2458    2457
    2458    2458       0    2460    2461    2462    2461    2462    2462       0
    2464    2465    2466    2465    2466    2466       0    2468    2469    2470
    2469    2470    2470       0    2472    2473    2474    2473    2474    2474
       0    2476    2477    2478    2477    2478    2478       0    2480    2481
    2482    2481    2482    2482       0    2484    2485    2486    2485    2486
    2486       0    2488    2489    2490    2489    2490    2490       0    2492
    2493    2494    2493    2494    2494       0    2496    2497    2498    2497
    2498    2498       0    2500    2501    2502    2501    2502    2502       0
    2504    2505    2506    2505    2506    2506       0    2508    2509    2510
    2509    2510    2510       0    2512    2513    2514    2513    2514    2514
       0    2516    2517    2518    2517    2518    2518       0    2520    2521
    2522    2521    2522    2522       0    2524    2525    2526    2525    2526
    2526       0    2528    2529    2530    2529    2530    2530       0    2532
    2533    2534    2533    2534    2534       0    2536    2537    2538    2537
    2538    2538       0    2540    2541    2542    2541    2542    2542       0
    2544    2545    2546    2545    2546    2546       0    2548    2549    2550
    2549    2550    2550       0    2552    2553    2554    2553    2554    2554
       0    2556    2557    2558    2557    2558    2558       0    2560    2561
    2562    2561    2562    2562       0    2564    2565    2566    2565    2566
    2566       0    2568    2569    2570    2569    2570    2570       0    2572
    2573    2574    2573    2574    2574       0    2576    2577    2578    2577
    2578    2578       0    2580    2581    2582    2581    2582    2582       0
    2584    2585    2586    2585    2586    2586       0    2588    2589    2590
    2589    2590    2590       0    2592    2593    2594    2593    2594    2594
       0    2596    2597    2598    2597    2598    2598       0    2600    2601
    2602    2601    2602    2602       0    2604    2605    2606    2605    2606
    2606       0    2608    2609    2610    2609    2610    2610       0    2612
    2613    2614    2613    2614    2614       0    2616    2617    2618    2617
    2618    2618       0    2620    2621    2622    2621    2622    2622       0
    2624    2625    2626    2625    2626    2626       0    2628    2629    2630
    2629    2630    2630       0    2632    2633    2634    2633    2634    2634
       0    2636    2637    2638    2637    2638    2638       0    2640    2641
    2642    2641    2642    2642       0    2644    2645    2646    2645    2646
    2646       0    2648    2649    2650    2649    2650    2650       0    2652
    2653    2654    2653    2654    2654       0    2656    2657    2658    2657
    2658    2658       0    2660    2661    2662    2661    2662    2662       0
    2664    2665    2666    2665    2666    2666       0    2668    2669    2670
    2669    2670    2670       0    2672    2673    2674    2673    2674    2674
       0    2676    2677    2678    2677    2678    2678       0    2680    2681
    2682    2681    2682    2682       0    2684    2685    2686    2685    2686
    2686       0    2688    2689    2690    2689    2690    2690       0    2692
    2693    2694    2693    2694    2694       0    2696    2697    2698    2697
    2698    2698       0    2700    2701    2702    2701    2702    2702       0
    2704    2705    2706    2705    2706    2706       0    2708    2709    2710
    2709    2710    2710       0    2712    2713    2714    2713    2714    2714
       0    2716    2717    2718    2717    2718    2718       0    2720    2721
    2722    2721    2722    2722       0    2724    2725    2726    2725    2726
    2726       0    2728    2729    2730    2729    2730    2730       0    2732
    2733    2734    2733    2734    2734       0    2736    2737    2738    2737
    2738    2738       0    2740    2741    2742    2741    2742    2742       0
    2744    2745    2746    2745    2746    2746       0    2748    2749    2750
    2749    2750    2750       0    2752    2753    2754    2753    2754    2754
       0    2756    2757    2758    2757    2758    2758       0    2760    2761
    2762    2761    2762    2762       0    2764    2765    2766    2765    2766
    2766       0    2768    2769    2770    2769    2770    2770       0    2772
    2773    2774    2773    2774    2774       0    2776    2777    2778    2777
    2778    2778       0    2780    2781    2782    2781    2782    2782       0
    2784    2785    2786    2785    2786    2786       0    2788    2789    2790
    2789    2790    2790       0    2792    2793    2794    2793    2794    2794
       0    2796    2797    2798    2797    2798    2798       0    2800    2801
    2802    2801    2802    2802       0    2804    2805    2806    2805    2806
    2806       0    2808    2809    2810    2809    2810    2810       0    2812
    2813    2814    2813    2814    2814       0    2816    2817    2818    2817
    2818    2818       0    2820    2821    2822    2821    2822    2822       0
    2824    2825    2826    2825    2826    2826       0    2828    2829    2830
    2829    2830    2830       0    2832    2833    2834    2833    2834    2834
       0    2836    2837    2838    2837    2838    2838       0    2840    2841
    2842    2841    2842    2842       0    2844    2845    2846    2845    2846
    2846       0    2848    2849    2850    2849    2850    2850       0    2852
    2853    2854    2853    2854    2854       0    2856    2857    2858    2857
    2858    2858       0    2860    2861    2862    2861    2862    2862       0
    2864    2865    2866    2865    2866    2866       0    2868    2869    2870
    2869    2870    2870       0    2872    2873    2874    2873    2874    2874
       0    2876    2877    2878    2877    2878    2878       0    2880    2881
    2882    2881    2882    2882       0    2884    2885    2886    2885    2886
    2886       0    2888    2889    2890    2889    2890    2890       0    2892
    2893    2894    2893    2894    2894       0    2896    2897    2898    2897
    2898    2898       0    2900    2901    2902    2901    2902    2902       0
    2904    2905    2906    2905    2906    2906       0    2908    2909    2910
    2909    2910    2910       0    2912    2913    2914    2913    2914    2914
       0    2916    2917    2918    2917    2918    2918       0    2920    2921
    2922    2921    2922    2922       0    2924    2925    2926    2925    2926
    2926       0    2928    2929    2930    2929    2930    2930       0    2932
    2933    2934    2933    2934    2934       0    2936    2937    2938    2937
    2938    2938       0    2940    2941    2942    2941    2942    2942       0
    2944    2945    2946    2945    2946    2946       0    2948    2949    2950
    2949    2950    2950       0    2952    2953    2954    2953    2954    2954
       0    2956    2957    2958    2957    2958    2958       0    2960    2961
    2962    2961    2962    2962       0    2964    2965    2966    2965    2966
    2966       0    2968    2969    2970    2969    2970    2970       0    2972
    2973    2974    2973    2974    2974       0    2976    2977    2978    2977
    2978    2978       0    2980    2981    2982    2981    2982    2982       0
    2984    2985    2986    2985    2986    2986       0    2988    2989    2990
    2989    2990    2990       0    2992    2993    2994    2993    2994    2994
       0    2996    2997    2998    2997    2998    2998       0    3000    3001
    3002    3001    3002    3002       0    3004    3005    3006    3005    3006
    3006       0    3008    3009    3010    3009    3010    3010       0    3012
    3013    3014    3013    3014    3014       0    3016    3017    3018    3017
    3018    3018       0    3020    3021    3022    3021    3022    3022       0
    3024    3025    3026    3025    3026    3026       0    3028    3029    3030
    3029    3030    3030       0    3032    3033    3034    3033    3034    3034
       0    3036    3037    3038    3037    3038    3038       0    3040    3041
    3042    3041    3042    3042       0    3044    3045    3046    3045    3046
    3046       0    3048    3049    3050    3049    3050    3050       0    3052
    3053    3054    3053    3054    3054       0    3056    3057    3058    3057
    3058    3058       0    3060    3061    3062    3061    3062    3062       0
    3064    3065    3066    3065    3066    3066       0    3068    3069    3070
    3069    3070    3070       0    3072    3073    3074    3073    3074    3074
       0    3076    3077    3078    3077    3078    3078       0    3080    3081
    3082    3081    3082    3082       0    3084    3085    3086    3085    3086
    3086       0    3088    3089    3090    3089    3090    3090       0    3092
    3093    3094    3093    3094    3094       0    3096    3097    3098    3097
    3098    3098       0    3100    3101    3102    3101    3102    3102       0
    3104    3105    3106    3105    3106    3106       0    3108    3109    3110
    3109    3110    3110       0    3112    3113    3114    3113    3114    3114
       0    3116    3117    3118    3117    3118    3118       0    3120    3121
    3122    3121    3122    3122       0    3124    3125    3126    3125    3126
    3126       0    3128    3129    3130    3129    3130    3130       0    3132
    3133    3134    3133    3134    3134       0    3136    3137    3138    3137
    3138    3138       0    3140    3141    3142    3141    3142    3142       0
    3144    3145    3146    3145    3146    3146       0    3148    3149    3150
    3149    3150    3150       0    3152    3153    3154    3153    3154    3154
       0    3156    3157    3158    3157    3158    3158       0    3160    3161
    3162    3161    3162    3162       0    3164    3165    3166    3165    3166
    3166       0    3168    3169    3170    3169    3170    3170       0    3172
    3173    3174    3173    3174    3174       0    3176    3177    3178    3177
    3178    3178       0    3180    3181    3182    3181    3182    3182       0
    3184    3185    3186    3185    3186    3186       0    3188    3189    3190
    3189    3190    3190       0    3192    3193    3194    3193    3194    3194
       0    3196    3197    3198    3197    3198    3198       0    3200    3201
    3202    3201    3202    3202       0    3204    3205    3206    3205    3206
    3206       0    3208    3209    3210    3209    3210    3210       0    3212
    3213    3214    3213    3214    3214       0    3216    3217    3218    3217
    3218    3218       0    3220    3221    3222    3221    3222    3222       0
    3224    3225    3226    3225    3226    3226       0    3228    3229    3230
    3229    3230    3230       0    3232    3233    3234    3233    3234    3234
       0    3236    3237    3238    3237    3238    3238       0    3240    3241
    3242    3241    3242    3242       0    3244    3245    3246    3245    3246
    3246       0    3248    3249    3250    3249    3250    3250       0    3252
    3253    3254    3253    3254    3254       0    3256    3257    3258    3257
    3258    3258       0    3260    3261    3262    3261    3262    3262       0
    3264    3265    3266    3265    3266    3266       0    3268    3269    3270
    3269    3270    3270       0    3272    3273    3274    3273    3274    3274
       0    3276    3277    3278    3277    3278    3278       0    3280    3281
    3282    3281    3282    3282       0    3284    3285    3286    3285    3286
    3286       0    3288    3289    3290    3289    3290    3290       0    3292
    3293    3294    3293    3294    3294       0    3296    3297    3298    3297
    3298    3298       0    3300    3301    3302    3301    3302    3302       0
    3304    3305    3306    3305    3306    3306       0    3308    3309    3310
    3309    3310    3310       0    3312    3313    3314    3313    3314    3314
       0    3316    3317    3318    3317    3318    3318       0    3320    3321
    3322    3321    3322    3322       0    3324    3325    3326    3325    3326
    3326       0    3328    3329    3330    3329    3330    3330       0    3332
    3333    3334    3333    3334    3334       0    3336    3337    3338    3337
    3338    3338       0    3340    3341    3342    3341    3342    3342       0
    3344    3345    3346    3345    3346    3346       0    3348    3349    3350
    3349    3350    3350       0    3352    3353    3354    3353    3354    3354
       0    3356    3357    3358    3357    3358    3358       0    3360    3361
    3362    3361    3362    3362       0    3364    3365    3366    3365    3366
    3366       0    3368    3369    3370    3369    3370    3370       0    3372
    3373    3374    3373    3374    3374       0    3376    3377    3378    3377
    3378    3378       0    3380    3381    3382    3381    3382    3382       0
    3384    3385    3386    3385    3386    3386       0    3388    3389    3390
    3389    3390    3390       0    3392    3393    3394    3393    3394    3394
       0    3396    3397    3398    3397    3398    3398       0    3400    3401
    3402    3401    3402    3402       0    3404    3405    3406    3405    3406
    3406       0    3408    3409    3410    3409    3410    3410       0    3412
    3413    3414    3413    3414    3414       0    3416    3417    3418    3417
    3418    3418       0    3420    3421    3422    3421    3422    3422       0
    3424    3425    3426    3425    3426    3426       0    3428    3429    3430
    3429    3430    3430       0    3432    3433    3434    3433    3434    3434
       0    3436    3437    3438    3437    3438    3438       0    3440    3441
    3442    3441    3442    3442       0    3444    3445    3446    3445    3446
    3446       0    3448    3449    3450    3449    3450    3450       0    3452
    3453    3454    3453    3454    3454       0    3456    3457    3458    3457
    3458    3458       0    3460    3461    3462    3461    3462    3462       0
    3464    3465    3466    3465    3466    3466       0    3468    3469    3470
    3469    3470    3470       0    3472    3473    3474    3473    3474    3474
       0    3476    3477    3478    3477    3478    3478       0    3480    3481
    3482    3481    3482    3482       0    3484    3485    3486    3485    3486
    3486       0    3488    3489    3490    3489    3490    3490       0    3492
    3493    3494    3493    3494    3494       0    3496    3497    3498    3497
    3498    3498       0    3500    3501    3502    3501    3502    3502       0
    3504    3505    3506    3505    3506    3506       0    3508    3509    3510
    3509    3510    3510       0    3512    3513    3514    3513    3514    3514
       0    3516    3517    3518    3517    3518    3518       0    3520    3521
    3522    3521    3522    3522       0    3524    3525    3526    3525    3526
    3526       0    3528    3529    3530    3529    3530    3530       0    3532
    3533    3534    3533    3534    3534       0    3536    3537    3538    3537
    3538    3538       0    3540    3541    3542    3541    3542    3542       0
    3544    3545    3546    3545    3546    3546       0    3548    3549    3550
    3549    3550    3550       0    3552    3553    3554    3553    3554    3554
       0    3556    3557    3558    3557    3558    3558       0    3560    3561
    3562    3561    3562    3562       0    3564    3565    3566    3565    3566
    3566       0    3568    3569    3570    3569    3570    3570       0    3572
    3573    3574    3573    3574    3574       0    3576    3577    3578    3577
    3578    3578       0    3580    3581    3582    3581    3582    3582       0
    3584    3585    3586    3585    3586    3586       0    3588    3589    3590
    3589    3590    3590       0    3592    3593    3594    3593    3594    3594
       0    3596    3597    3598    3597    3598    3598       0    3600    3601
    3602    3601    3602    3602       0    3604    3605    3606    3605    3606
    3606       0    3608    3609    3610    3609    3610    3610       0    3612
    3613    3614    3613    3614    3614       0    3616    3617    3618    3617
    3618    3618       0    3620    3621    3622    3621    3622    3622       0
    3624    3625    3626    3625    3626    3626       0    3628    3629    3630
    3629    3630    3630       0    3632    3633    3634    3633    3634    3634
       0    3636    3637    3638    3637    3638    3638       0    3640    3641
    3642    3641    3642    3642       0    3644    3645    3646    3645    3646
    3646       0    3648    3649    3650    3649    3650    3650       0    3652
    3653    3654    3653    3654    3654       0    3656    3657    3658    3657
    3658    3658       0    3660    3661    3662    3661    3662    3662       0
    3664    3665    3666    3665    3666    3666       0    3668    3669    3670
    3669    3670    3670       0    3672    3673    3674    3673    3674    3674
       0    3676    3677    3678    3677    3678    3678       0    3680    3681
    3682    3681    3682    3682       0    3684    3685    3686    3685    3686
    3686       0    3688    3689    3690    3689    3690    3690       0    3692
    3693    3694    3693    3694    3694       0    3696    3697    3698    3697
    3698    3698       0    3700    3701    3702    3701    3702    3702       0
    3704    3705    3706    3705    3706    3706       0    3708    3709    3710
    3709    3710    3710       0    3712    3713    3714    3713    3714    3714
       0    3716    3717    3718    3717    3718    3718       0    3720    3721
    3722    3721    3722    3722       0    3724    3725    3726    3725    3726
    3726       0    3728    3729    3730    3729    3730    3730       0    3732
    3733    3734    3733    3734    3734       0    3736    3737    3738    3737
    3738    3738       0    3740    3741    3742    3741    3742    3742       0
    3744    3745    3746    3745    3746    3746       0    3748    3749    3750
    3749    3750    3750       0    3752    3753    3754    3753    3754    3754
       0    3756    3757    3758    3757    3758    3758       0    3760    3761
    3762    3761    3762    3762       0    3764    3765    3766    3765    3766
    3766       0    3768    3769    3770    3769    3770    3770       0    3772
    3773    3774    3773    3774    3774       0    3776    3777    3778    3777
    3778    3778       0    3780    3781    3782    3781    3782    3782       0
    3784    3785    3786    3785    3786    3786       0    3788    3789    3790
    3789    3790    3790       0    3792    3793    3794    3793    3794    3794
       0    3796    3797    3798    3797    3798    3798       0    3800    3801
    3802    3801    3802    3802       0    3804    3805    3806    3805    3806
    3806       0    3808    3809    3810    3809    3810    3810       0    3812
    3813    3814    3813    3814    3814       0    3816    3817    3818    3817
    3818    3818       0    3820    3821    3822    3821    3822    3822       0
    3824    3825    3826    3825    3826    3826       0    3828    3829    3830
    3829    3830    3830       0    3832    3833    3834    3833    3834    3834
       0    3836    3837    3838    3837    3838    3838       0    3840    3841
    3842    3841    3842    3842       0    3844    3845    3846    3845    3846
    3846       0    3848    3849    3850    3849    3850    3850       0    3852
    3853    3854    3853    3854    3854       0    3856    3857    3858    3857
    3858    3858       0    3860    3861    3862    3861    3862    3862       0
    3864    3865    3866    3865    3866    3866       0    3868    3869    3870
    3869    3870    3870       0    3872    3873    3874    3873    3874    3874
       0    3876    3877    3878    3877    3878    3878       0    3880    3881
    3882    3881    3882    3882       0    3884    3885    3886    3885    3886
    3886       0    3888    3889    3890    3889    3890    3890       0    3892
    3893    3894    3893    3894    3894       0    3896    3897    3898    3897
    3898    3898       0    3900    3901    3902    3901    3902    3902       0
    3904    3905    3906    3905    3906    3906       0    3908    3909    3910
    3909    3910    3910       0    3912    3913    3914    3913    3914    3914
       0    3916    3917    3918    3917    3918    3918       0    3920    3921
    3922    3921    3922    3922       0    3924    3925    3926    3925    3926
    3926       0    3928    3929    3930    3929    3930    3930       0    3932
    3933    3934    3933    3934    3934       0    3936    3937    3938    3937
    3938    3938       0    3940    3941    3942    3941    3942    3942       0
    3944    3945    3946    3945    3946    3946       0    3948    3949    3950
    3949    3950    3950       0    3952    3953    3954    3953    3954    3954
       0    3956    3957    3958    3957    3958    3958       0    3960    3961
    3962    3961    3962    3962       0    3964    3965    3966    3965    3966
    3966       0    3968    3969    3970    3969    3970    3970       0    3972
    3973    3974    3973    3974    3974       0    3976    3977    3978    3977
    3978    3978       0    3980    3981    3982    3981    3982    3982       0
    3984    3985    3986    3985    3986    3986       0    3988    3989    3990
    3989    3990    3990       0    3992    3993    3994    3993    3994    3994
       0    3996    3997    3998    3997    3998    3998       0    4000    4001
    4002    4001    4002    4002       0    4004    4005    4006    4005    4006
    4006       0    4008    4009    4010    4009    4010    4010       0    4012
    4013    4014    4013    4014    4014       0    4016    4017    4018    4017
    4018    4018       0    4020    4021    4022    4021    4022    4022       0
    4024    4025    4026    4025    4026    4026       0    4028    4029    4030
    4029    4030    4030       0    4032    4033    4034    4033    4034    4034
       0    4036    4037    4038    4037    4038    4038       0    4040    4041
    4042    4041    4042    4042       0    4044    4045    4046    4045    4046
    4046       0    4048    4049    4050    4049    4050    4050       0    4052
    4053    4054    4053    4054    4054       0    4056    4057    4058    4057
    4058    4058       0    4060    4061    4062    4061    4062    4062       0
    4064    4065    4066    4065    4066    4066       0    4068    4069    4070
    4069    4070    4070       0    4072    4073    4074    4073    4074    4074
       0    4076    4077    4078    4077    4078    4078       0    4080    4081
    4082    4081    4082    4082       0    4084    4085    4086    4085    4086
    4086       0    4088    4089    4090    4089    4090    4090       0    4092
    4093    4094    4093    4094    4094       0    4096    4097    4098    4097
    4098    4098       0    4100    4101    4102    4101    4102    4102       0
    4104    4105    4106    4105    4106    4106       0    4108    4109    4110
    4109    4110    4110       0    4112    4113    4114    4113    4114    4114
       0    4116    4117    4118    4117    4118    4118       0    4120    4121
    4122    4121    4122    4122       0    4124    4125    4126    4125    4126
    4126       0    4128    4129    4130    4129    4130    4130       0    4132
    4133    4134    4133    4134    4134       0    4136    4137    4138    4137
    4138    4138       0    4140    4141    4142    4141    4142    4142       0
    4144    4145    4146    4145    4146    4146       0    4148    4149    4150
    4149    4150    4150       0    4152    4153    4154    4153    4154    4154
       0    4156    4157    4158    4157    4158    4158       0    4160    4161
    4162    4161    4162    4162       0    4164    4165    4166    4165    4166
    4166       0    4168    4169    4170    4169    4170    4170       0    4172
    4173    4174    4173    4174    4174       0    4176    4177    4178    4177
    4178    4178       0    4180    4181    4182    4181    4182    4182       0
    4184    4185    4186    4185    4186    4186       0    4188    4189    4190
    4189    4190    4190       0    4192    4193    4194    4193    4194    4194
       0    4196    4197    4198    4197    4198    4198       0    4200    4201
    4202    4201    4202    4202       0    4204    4205    4206    4205    4206
    4206       0    4208    4209    4210    4209    4210    4210       0    4212
    4213    4214    4213    4214    4214       0    4216    4217    4218    4217
    4218    4218       0    4220    4221    4222    4221    4222    4222       0
    4224    4225    4226    4225    4226    4226       0    4228    4229    4230
    4229    4230    4230       0    4232    4233    4234    4233    4234    4234
       0    4236    4237    4238    4237    4238    4238       0    4240    4241
    4242    4241    4242    4242       0    4244    4245    4246    4245    4246
    4246       0    4248    4249    4250    4249    4250    4250       0    4252
    4253    4254    4253    4254    4254       0    4256    4257    4258    4257
    4258    4258       0    4260    4261    4262    4261    4262    4262       0
    4264    4265    4266    4265    4266    4266       0    4268    4269    4270
    4269    4270    4270       0    4272    4273    4274    4273    4274    4274
       0    4276    4277    4278    4277    4278    4278       0    4280    4281
    4282    4281    4282    4282       0    4284    4285    4286    4285    4286
    4286       0    4288    4289    4290    4289    4290    4290       0    4292
    4293    4294    4293    4294    4294       0    4296    4297    4298    4297
    4298    4298       0    4300    4301    4302    4301    4302    4302       0
    4304    4305    4306    4305    4306    4306       0    4308    4309    4310
    4309    4310    4310       0    4312    4313    4314    4313    4314    4314
       0    4316    4317    4318    4317    4318    4318       0    4320    4321
    4322    4321    4322    4322       0    4324    4325    4326    4325    4326
    4326       0    4328    4329    4330    4329    4330    4330       0    4332
    4333    4334    4333    4334    4334       0    4336    4337    4338    4337
    4338    4338       0    4340    4341    4342    4341    4342    4342       0
    4344    4345    4346    4345    4346    4346       0    4348    4349    4350
    4349    4350    4350       0    4352    4353    4354    4353    4354    4354
       0    4356    4357    4358    4357    4358    4358       0    4360    4361
    4362    4361    4362    4362       0    4364    4365    4366    4365    4366
    4366       0    4368    4369    4370    4369    4370    4370       0    4372
    4373    4374    4373    4374    4374       0    4376    4377    4378    4377
    4378    4378       0    4380    4381    4382    4381    4382    4382       0
    4384    4385    4386    4385    4386    4386       0    4388    4389    4390
    4389    4390    4390       0    4392    4393    4394    4393    4394    4394
       0    4396    4397    4398    4397    4398    4398       0    4400    4401
    4402    4401    4402    4402       0    4404    4405    4406    4405    4406
    4406       0    4408    4409    4410    4409    4410    4410       0    4412
    4413    4414    4413    4414    4414       0    4416    4417    4418    4417
    4418    4418       0    4420    4421    4422    4421    4422    4422       0
    4424    4425    4426    4425    4426    4426       0    4428    4429    4430
    4429    4430    4430       0    4432    4433    4434    4433    4434    4434
       0    4436    4437    4438    4437    4438    4438       0    4440    4441
    4442    4441    4442    4442       0    4444    4445    4446    4445    4446
    4446       0    4448    4449    4450    4449    4450    4450       0    4452
    4453    4454    4453    4454    4454       0    4456    4457    4458    4457
    4458    4458       0    4460    4461    4462    4461    4462    4462       0
    4464    4465    4466    4465    4466    4466       0    4468    4469    4470
    4469    4470    4470       0    4472    4473    4474    4473    4474    4474
       0    4476    4477    4478    4477    4478    4478       0    4480    4481
    4482    4481    4482    4482       0    4484    4485    4486    4485    4486
    4486       0    4488    4489    4490    4489    4490    4490       0    4492
    4493    4494    4493    4494    4494       0    4496    4497    4498    4497
    4498    4498       0    4500    4501    4502    4501    4502    4502       0
    4504    4505    4506    4505    4506    4506       0    4508    4509    4510
    4509    4510    4510       0    4512    4513    4514    4513    4514    4514
       0    4516    4517    4518    4517    4518    4518       0    4520    4521
    4522    4521    4522    4522       0    4524    4525    4526    4525    4526
    4526       0    4528    4529    4530    4529    4530    4530       0    4532
    4533    4534    4533    4534    4534       0    4536    4537    4538    4537
    4538    4538       0    4540    4541    4542    4541    4542    4542       0
    4544    4545    4546    4545    4546    4546       0    4548    4549    4550
    4549    4550    4550       0    4552    4553    4554    4553    4554    4554
       0    4556    4557    4558    4557    4558    4558       0    4560    4561
    4562    4561    4562    4562       0    4564    4565    4566    4565    4566
    4566       0    4568    4569    4570    4569    4570    4570       0    4572
    4573    4574    4573    4574    4574       0    4576    4577    4578    4577
    4578    4578       0    4580    4581    4582    4581    4582    4582       0
    4584    4585    4586    4585    4586    4586       0    4588    4589    4590
    4589    4590    4590       0    4592    4593    4594    4593    4594    4594
       0    4596    4597    4598    4597    4598    4598       0    4600    4601
    4602    4601    4602    4602       0    4604    4605    4606    4605    4606
    4606       0    4608    4609    4610    4609    4610    4610       0    4612
    4613    4614    4613    4614    4614       0    4616    4617    4618    4617
    4618    4618       0    4620    4621    4622    4621    4622    4622       0
    4624    4625    4626    4625    4626    4626       0    4628    4629    4630
    4629    4630    4630       0    4632    4633    4634    4633    4634    4634
       0    4636    4637    4638    4637    4638    4638       0    4640    4641
    4642    4641    4642    4642       0    4644    4645    4646    4645    4646
    4646       0    4648    4649    4650    4649    4650    4650       0    4652
    4653    4654    4653    4654    4654       0    4656    4657    4658    4657
    4658    4658       0    4660    4661    4662    4661    4662    4662       0
    4664    4665    4666    4665    4666    4666       0    4668    4669    4670
    4669    4670    4670       0    4672    4673    4674    4673    4674    4674
       0    4676    4677    4678    4677    4678    4678       0    4680    4681
    4682    4681    4682    4682       0    4684    4685    4686    4685    4686
    4686       0    4688    4689    4690    4689    4690    4690       0    4692
    4693    4694    4693    4694    4694       0    4696    4697    4698    4697
    4698    4698       0    4700    4701    4702    4701    4702    4702       0
    4704    4705    4706    4705    4706    4706       0    4708    4709    4710
    4709    4710    4710       0    4712    4713    4714    4713    4714    4714
       0    4716    4717    4718    4717    4718    4718       0    4720    4721
    4722    4721    4722    4722       0    4724    4725    4726    4725    4726
    4726       0    4728    4729    4730    4729    4730    4730       0    4732
    4733    4734    4733    4734    4734       0    4736    4737    4738    4737
    4738    4738       0    4740    4741    4742    4741    4742    4742       0
    4744    4745    4746    4745    4746    4746       0    4748    4749    4750
    4749    4750    4750       0    4752    4753    4754    4753    4754    4754
       0    4756    4757    4758    4757    4758    4758       0    4760    4761
    4762    4761    4762    4762       0    4764    4765    4766    4765    4766
    4766       0    4768    4769    4770    4769    4770    4770       0    4772
    4773    4774    4773    4774    4774       0    4776    4777    4778    4777
    4778    4778       0    4780    4781    4782    4781    4782    4782       0
    4784    4785    4786    4785    4786    4786       0    4788    4789    4790
    4789    4790    4790       0    4792    4793    4794    4793    4794    4794
       0    4796    4797    4798    4797    4798    4798       0    4800    4801
    4802    4801    4802    4802       0    4804    4805    4806    4805    4806
    4806       0    4808    4809    4810    4809    4810    4810       0    4812
    4813    4814    4813    4814    4814       0    4816    4817    4818    4817
    4818    4818       0    4820    4821    4822    4821    4822    4822       0
    4824    4825    4826    4825    4826    4826       0    4828    4829    4830
    4829    4830    4830       0    4832    4833    4834    4833    4834    4834
       0    4836    4837    4838    4837    4838    4838       0    4840    4841
    4842    4841    4842    4842       0    4844    4845    4846    4845    4846
    4846       0    4848    4849    4850    4849    4850    4850       0    4852
    4853    4854    4853    4854    4854       0    4856    4857    4858    4857
    4858    4858       0    4860    4861    4862    4861    4862    4862       0
    4864    4865    4866    4865    4866    4866       0    4868    4869    4870
    4869    4870    4870       0    4872    4873    4874    4873    4874    4874
       0    4876    4877    4878    4877    4878    4878       0    4880    4881
    4882    4881    4882    4882       0    4884    4885    4886    4885    4886
    4886       0    4888    4889    4890    4889    4890    4890       0    4892
    4893    4894    4893    4894    4894       0    4896    4897    4898    4897
    4898    4898       0    4900    4901    4902    4901    4902    4902       0
    4904    4905    4906    4905    4906    4906       0    4908    4909    4910
    4909    4910    4910       0    4912    4913    4914    4913    4914    4914
       0    4916    4917    4918    4917    4918    4918       0    4920    4921
    4922    4921    4922    4922       0    4924    4925    4926    4925    4926
    4926       0    4928    4929    4930    4929    4930    4930       0    4932
    4933    4934    4933    4934    4934       0    4936    4937    4938    4937
    4938    4938       0    4940    4941    4942    4941    4942    4942       0
    4944    4945    4946    4945    4946    4946       0    4948    4949    4950
    4949    4950    4950       0    4952    4953    4954    4953    4954    4954
       0    4956    4957    4958    4957    4958    4958       0    4960    4961
    4962    4961    4962    4962       0    4964    4965    4966    4965    4966
    4966       0    4968    4969    4970    4969    4970    4970       0    4972
    4973    4974    4973    4974    4974       0    4976    4977    4978    4977
    4978    4978       0    4980    4981    4982    4981    4982    4982       0
    4984    4985    4986    4985    4986    4986       0    4988    4989    4990
    4989    4990    4990       0    4992    4993    4994    4993    4994    4994
       0    4996    4997    4998    4997    4998    4998       0    5000    5001
    5002    5001    5002    5002       0    5004    5005    5006    5005    5006
    5006       0    5008    5009    5010    5009    5010    5010       0    5012
    5013    5014    5013    5014    5014       0    5016    5017    5018    5017
    5018    5018       0    5020    5021    5022    5021    5022    5022       0
    5024    5025    5026    5025    5026    5026       0    5028    5029    5030
    5029    5030    5030       0    5032    5033    5034    5033    5034    5034
       0    5036    5037    5038    5037    5038    5038       0    5040    5041
    5042    5041    5042    5042       0    5044    5045    5046    5045    5046
    5046       0    5048    5049    5050    5049    5050    5050       0    5052
    5053    5054    5053    5054    5054       0    5056    5057    5058    5057
    5058    5058       0    5060    5061    5062    5061    5062    5062       0
    5064    5065    5066    5065    5066    5066       0    5068    5069    5070
    5069    5070    5070       0    5072    5073    5074    5073    5074    5074
       0    5076    5077    5078    5077    5078    5078       0    5080    5081
    5082    5081    5082    5082       0    5084    5085    5086    5085    5086
    5086       0    5088    5089    5090    5089    5090    5090       0    5092
    5093    5094    5093    5094    5094       0    5096    5097    5098    5097
    5098    5098       0    5100    5101    5102    5101    5102    5102       0
    5104    5105    5106    5105    5106    5106       0    5108    5109    5110
    5109    5110    5110       0    5112    5113    5114    5113    5114    5114
       0    5116    5117    5118    5117    5118    5118       0    5120    5121
    5122    5121    5122    5122       0    5124    5125    5126    5125    5126
    5126       0    5128    5129    5130    5129    5130    5130       0    5132
    5133    5134    5133    5134    5134       0    5136    5137    5138    5137
    5138    5138       0    5140    5141    5142    5141    5142    5142       0
    5144    5145    5146    5145    5146    5146       0    5148    5149    5150
    5149    5150    5150       0    5152    5153    5154    5153    5154    5154
       0    5156    5157    5158    5157    5158    5158       0    5160    5161
    5162    5161    5162    5162       0    5164    5165    5166    5165    5166
    5166       0    5168    5169    5170    5169    5170    5170       0    5172
    5173    5174    5173    5174    5174       0    5176    5177    5178    5177
    5178    5178       0    5180    5181    5182    5181    5182    5182       0
    5184    5185    5186    5185    5186    5186       0    5188    5189    5190
    5189    5190    5190       0    5192    5193    5194    5193    5194    5194
       0    5196    5197    5198    5197    5198    5198       0    5200    5201
    5202    5201    5202    5202       0    5204    5205    5206    5205    5206
    5206       0    5208    5209    5210    5209    5210    5210       0    5212
    5213    5214    5213    5214    5214       0    5216    5217    5218    5217
    5218    5218       0    5220    5221    5222    5221    5222    5222       0
    5224    5225    5226    5225    5226    5226       0    5228    5229    5230
    5229    5230    5230       0    5232    5233    5234    5233    5234    5234
       0    5236    5237    5238    5237    5238    5238       0    5240    5241
    5242    5241    5242    5242       0    5244    5245    5246    5245    5246
    5246       0    5248    5249    5250    5249    5250    5250       0    5252
    5253    5254    5253    5254    5254       0    5256    5257    5258    5257
    5258    5258       0    5260    5261    5262    5261    5262    5262       0
    5264    5265    5266    5265    5266    5266       0    5268    5269    5270
    5269    5270    5270       0    5272    5273    5274    5273    5274    5274
       0    5276    5277    5278    5277    5278    5278       0    5280    5281
    5282    5281    5282    5282       0    5284    5285    5286    5285    5286
    5286       0    5288    5289    5290    5289    5290    5290       0    5292
    5293    5294    5293    5294    5294       0    5296    5297    5298    5297
    5298    5298       0    5300    5301    5302    5301    5302    5302       0
    5304    5305    5306    5305    5306    5306       0    5308    5309    5310
    5309    5310    5310       0    5312    5313    5314    5313    5314    5314
       0    5316    5317    5318    5317    5318    5318       0    5320    5321
    5322    5321    5322    5322       0    5324    5325    5326    5325    5326
    5326       0    5328    5329    5330    5329    5330    5330       0    5332
    5333    5334    5333    5334    5334       0    5336    5337    5338    5337
    5338    5338       0    5340    5341    5342    5341    5342    5342       0
    5344    5345    5346    5345    5346    5346       0    5348    5349    5350
    5349    5350    5350       0    5352    5353    5354    5353    5354    5354
       0    5356    5357    5358    5357    5358    5358       0    5360    5361
    5362    5361    5362    5362       0    5364    5365    5366    5365    5366
    5366       0    5368    5369    5370    5369    5370    5370       0    5372
    5373    5374    5373    5374    5374       0    5376    5377    5378    5377
    5378    5378       0    5380    5381    5382    5381    5382    5382       0
    5384    5385    5386    5385    5386    5386       0    5388    5389    5390
    5389    5390    5390       0    5392    5393    5394    5393    5394    5394
       0    5396    5397    5398    5397    5398    5398       0    5400    5401
    5402    5401    5402    5402       0    5404    5405    5406    5405    5406
    5406       0    5408    5409    5410    5409    5410    5410       0    5412
    5413    5414    5413    5414    5414       0    5416    5417    5418    5417
    5418    5418       0    5420    5421    5422    5421    5422    5422       0
    5424    5425    5426    5425    5426    5426       0    5428    5429    5430
    5429    5430    5430       0    5432    5433    5434    5433    5434    5434
       0    5436    5437    5438    5437    5438    5438       0    5440    5441
    5442    5441    5442    5442       0    5444    5445    5446    5445    5446
    5446       0    5448    5449    5450    5449    5450    5450       0    5452
    5453    5454    5453    5454    5454       0    5456    5457    5458    5457
    5458    5458       0    5460    5461    5462    5461    5462    5462       0
    5464    5465    5466    5465    5466    5466       0    5468    5469    5470
    5469    5470    5470       0    5472    5473    5474    5473    5474    5474
       0    5476    5477    5478    5477    5478    5478       0    5480    5481
    5482    5481    5482    5482       0    5484    5485    5486    5485    5486
    5486       0    5488    5489    5490    5489    5490    5490       0    5492
    5493    5494    5493    5494    5494       0    5496    5497    5498    5497
    5498    5498       0    5500    5501    5502    5501    5502    5502       0
    5504    5505    5506    5505    5506    5506       0    5508    5509    5510
    5509    5510    5510       0    5512    5513    5514    5513    5514    5514
       0    5516    5517    5518    5517    5518    5518       0    5520    5521
    5522    5521    5522    5522       0    5524    5525    5526    5525    5526
    5526       0    5528    5529    5530    5529    5530    5530       0    5532
    5533    5534    5533    5534    5534       0    5536    5537    5538    5537
    5538    5538       0    5540    5541    5542    5541    5542    5542       0
    5544    5545    5546    5545    5546    5546       0    5548    5549    5550
    5549    5550    5550       0    5552    5553    5554    5553    5554    5554
       0    5556    5557    5558    5557    5558    5558       0    5560    5561
    5562    5561    5562    5562       0    5564    5565    5566    5565    5566
    5566       0    5568    5569    5570    5569    5570    5570       0    5572
    5573    5574    5573    5574    5574       0    5576    5577    5578    5577
    5578    5578       0    5580    5581    5582    5581    5582    5582       0
    5584    5585    5586    5585    5586    5586       0    5588    5589    5590
    5589    5590    5590       0    5592    5593    5594    5593    5594    5594
       0    5596    5597    5598    5597    5598    5598       0    5600    5601
    5602    5601    5602    5602       0    5604    5605    5606    5605    5606
    5606       0    5608    5609    5610    5609    5610    5610       0    5612
    5613    5614    5613    5614    5614       0    5616    5617    5618    5617
    5618    5618       0    5620    5621    5622    5621    5622    5622       0
    5624    5625    5626    5625    5626    5626       0    5628    5629    5630
    5629    5630    5630       0    5632    5633    5634    5633    5634    5634
       0    5636    5637    5638    5637    5638    5638       0    5640    5641
    5642    5641    5642    5642       0    5644    5645    5646    5645    5646
    5646       0    5648    5649    5650    5649    5650    5650       0    5652
    5653    5654    5653    5654    5654       0    5656    5657    5658    5657
    5658    5658       0    5660    5661    5662    5661    5662    5662       0
    5664    5665    5666    5665    5666    5666       0    5668    5669    5670
    5669    5670    5670       0    5672    5673    5674    5673    5674    5674
       0    5676    5677    5678    5677    5678    5678       0    5680    5681
    5682    5681    5682    5682       0    5684    5685    5686    5685    5686
    5686       0    5688    5689    5690    5689    5690    5690       0    5692
    5693    5694    5693    5694    5694       0    5696    5697    5698    5697
    5698    5698       0    5700    5701    5702    5701    5702    5702       0
    5704    5705    5706    5705    5706    5706       0    5708    5709    5710
    5709    5710    5710       0    5712    5713    5714    5713    5714    5714
       0    5716    5717    5718    5717    5718    5718       0    5720    5721
    5722    5721    5722    5722       0    5724    5725    5726    5725    5726
    5726       0    5728    5729    5730    5729    5730    5730       0    5732
    5733    5734    5733    5734    5734       0    5736    5737    5738    5737
    5738    5738       0    5740    5741    5742    5741    5742    5742       0
    5744    5745    5746    5745    5746    5746       0    5748    5749    5750
    5749    5750    5750       0    5752    5753    5754    5753    5754    5754
       0    5756    5757    5758    5757    5758    5758       0    5760    5761
    5762    5761    5762    5762       0    5764    5765    5766    5765    5766
    5766       0    5768    5769    5770    5769    5770    5770       0    5772
    5773    5774    5773    5774    5774       0    5776    5777    5778    5777
    5778    5778       0    5780    5781    5782    5781    5782    5782       0
    5784    5785    5786    5785    5786    5786       0    5788    5789    5790
    5789    5790    5790       0    5792    5793    5794    5793    5794    5794
       0    5796    5797    5798    5797    5798    5798       0    5800    5801
    5802    5801    5802    5802       0    5804    5805    5806    5805    5806
    5806       0    5808    5809    5810    5809    5810    5810       0    5812
    5813    5814    5813    5814    5814       0    5816    5817    5818    5817
    5818    5818       0    5820    5821    5822    5821    5822    5822       0
    5824    5825    5826    5825    5826    5826       0    5828    5829    5830
    5829    5830    5830       0    5832    5833    5834    5833    5834    5834
       0    5836    5837    5838    5837    5838    5838       0    5840    5841
    5842    5841    5842    5842       0    5844    5845    5846    5845    5846
    5846       0    5848    5849    5850    5849    5850    5850       0    5852
    5853    5854    5853    5854    5854       0    5856    5857    5858    5857
    5858    5858       0    5860    5861    5862    5861    5862    5862       0
    5864    5865    5866    5865    5866    5866       0    5868    5869    5870
    5869    5870    5870       0    5872    5873    5874    5873    5874    5874
       0    5876    5877    5878    5877    5878    5878       0    5880    5881
    5882    5881    5882    5882       0    5884    5885    5886    5885    5886
    5886       0    5888    5889    5890    5889    5890    5890       0    5892
    5893    5894    5893    5894    5894       0    5896    5897    5898    5897
    5898    5898       0    5900    5901    5902    5901    5902    5902       0
    5904    5905    5906    5905    5906    5906       0    5908    5909    5910
    5909    5910    5910       0    5912    5913    5914    5913    5914    5914
       0    5916    5917    5918    5917    5918    5918       0    5920    5921
    5922    5921    5922    5922       0    5924    5925    5926    5925    5926
    5926       0    5928    5929    5930    5929    5930    5930       0    5932
    5933    5934    5933    5934    5934       0    5936    5937    5938    5937
    5938    5938       0    5940    5941    5942    5941    5942    5942       0
    5944    5945    5946    5945    5946    5946       0    5948    5949    5950
    5949    5950    5950       0    5952    5953    5954    5953    5954    5954
       0    5956    5957    5958    5957    5958    5958       0    5960    5961
    5962    5961    5962    5962       0    5964    5965    5966    5965    5966
    5966       0    5968    5969    5970    5969    5970    5970       0    5972
    5973    5974    5973    5974    5974       0    5976    5977    5978    5977
    5978    5978       0    5980    5981    5982    5981    5982    5982       0
    5984    5985    5986    5985    5986    5986       0    5988    5989    5990
    5989    5990    5990       0    5992    5993    5994    5993    5994    5994
       0    5996    5997    5998    5997    5998    5998       0    6000    6001
    6002    6001    6002    6002       0    6004    6005    6006    6005    6006
    6006       0    6008    6009    6010    6009    6010    6010       0    6012
    6013    6014    6013    6014    6014       0    6016    6017    6018    6017
    6018    6018       0    6020    6021    6022    6021    6022    6022       0
    6024    6025    6026    6025    6026    6026       0    6028    6029    6030
    6029    6030    6030       0    6032    6033    6034    6033    6034    6034
       0    6036    6037    6038    6037    6038    6038       0    6040    6041
    6042    6041    6042    6042       0    6044    6045    6046    6045    6046
    6046       0    6048    6049    6050    6049    6050    6050       0    6052
    6053    6054    6053    6054    6054       0    6056    6057    6058    6057
    6058    6058       0    6060    6061    6062    6061    6062    6062       0
    6064    6065    6066    6065    6066    6066       0    6068    6069    6070
    6069    6070    6070       0    6072    6073    6074    6073    6074    6074
       0    6076    6077    6078    6077    6078    6078       0    6080    6081
    6082    6081    6082    6082       0    6084    6085    6086    6085    6086
    6086       0    6088    6089    6090    6089    6090    6090       0    6092
    6093    6094    6093    6094    6094       0    6096    6097    6098    6097
    6098    6098       0    6100    6101    6102    6101    6102    6102       0
    6104    6105    6106    6105    6106    6106       0    6108    6109    6110
    6109    6110    6110       0    6112    6113    6114    6113    6114    6114
       0    6116    6117    6118    6117    6118    6118       0    6120    6121
    6122    6121    6122    6122       0    6124    6125    6126    6125    6126
    6126       0    6128    6129    6130    6129    6130    6130       0    6132
    6133    6134    6133    6134    6134       0    6136    6137    6138    6137
    6138    6138       0    6140    6141    6142    6141    6142    6142       0
    6144    6145    6146    6145    6146    6146       0    6148    6149    6150
    6149    6150    6150       0    6152    6153    6154    6153    6154    6154
       0    6156    6157    6158    6157    6158    6158       0    6160    6161
    6162    6161    6162    6162       0    6164    6165    6166    6165    6166
    6166       0    6168    6169    6170    6169    6170    6170       0    6172
    6173    6174    6173    6174    6174       0    6176    6177    6178    6177
    6178    6178       0    6180    6181    6182    6181    6182    6182       0
    6184    6185    6186    6185    6186    6186       0    6188    6189    6190
    6189    6190    6190       0    6192    6193    6194    6193    6194    6194
       0    6196    6197    6198    6197    6198    6198       0    6200    6201
    6202    6201    6202    6202       0    6204    6205    6206    6205    6206
    6206       0    6208    6209    6210    6209    6210    6210       0    6212
    6213    6214    6213    6214    6214       0    6216    6217    6218    6217
    6218    6218       0    6220    6221    6222    6221    6222    6222       0
    6224    6225    6226    6225    6226    6226       0    6228    6229    6230
    6229    6230    6230       0    6232    6233    6234    6233    6234    6234
       0    6236    6237    6238    6237    6238    6238       0    6240    6241
    6242    6241    6242    6242       0    6244    6245    6246    6245    6246
    6246       0    6248    6249    6250    6249    6250    6250       0    6252
    6253    6254    6253    6254    6254       0    6256    6257    6258    6257
    6258    6258       0    6260    6261    6262    6261    6262    6262       0
    6264    6265    6266    6265    6266    6266       0    6268    6269    6270
    6269    6270    6270       0    6272    6273    6274    6273    6274    6274
       0    6276    6277    6278    6277    6278    6278       0    6280    6281
    6282    6281    6282    6282       0    6284    6285    6286    6285    6286
    6286       0    6288    6289    6290    6289    6290    6290       0    6292
    6293    6294    6293    6294    6294       0    6296    6297    6298    6297
    6298    6298       0    6300    6301    6302    6301    6302    6302       0
    6304    6305    6306    6305    6306    6306       0    6308    6309    6310
    6309    6310    6310       0    6312    6313    6314    6313    6314    6314
       0    6316    6317    6318    6317    6318    6318       0    6320    6321
    6322    6321    6322    6322       0    6324    6325    6326    6325    6326
    6326       0    6328    6329    6330    6329    6330    6330       0    6332
    6333    6334    6333    6334    6334       0    6336    6337    6338    6337
    6338    6338       0    6340    6341    6342    6341    6342    6342       0
    6344    6345    6346    6345    6346    6346       0    6348    6349    6350
    6349    6350    6350       0    6352    6353    6354    6353    6354    6354
       0    6356    6357    6358    6357    6358    6358       0    6360    6361
    6362    6361    6362    6362       0    6364    6365    6366    6365    6366
    6366       0    6368    6369    6370    6369    6370    6370       0    6372
    6373    6374    6373    6374    6374       0    6376    6377    6378    6377
    6378    6378       0    6380    6381    6382    6381    6382    6382       0
    6384    6385    6386    6385    6386    6386       0    6388    6389    6390
    6389    6390    6390       0    6392    6393    6394    6393    6394    6394
       0    6396    6397    6398    6397    6398    6398       0    6400    6401
    6402    6401    6402    6402       0    6404    6405    6406    6405    6406
    6406       0    6408    6409    6410    6409    6410    6410       0    6412
    6413    6414    6413    6414    6414       0    6416    6417    6418    6417
    6418    6418       0    6420    6421    6422    6421    6422    6422       0
    6424    6425    6426    6425    6426    6426       0    6428    6429    6430
    6429    6430    6430       0    6432    6433    6434    6433    6434    6434
       0    6436    6437    6438    6437    6438    6438       0    6440    6441
    6442    6441    6442    6442       0    6444    6445    6446    6445    6446
    6446       0    6448    6449    6450    6449    6450    6450       0    6452
    6453    6454    6453    6454    6454       0    6456    6457    6458    6457
    6458    6458       0    6460    6461    6462    6461    6462    6462       0
    6464    6465    6466    6465    6466    6466       0    6468    6469    6470
    6469    6470    6470       0    6472    6473    6474    6473    6474    6474
       0    6476    6477    6478    6477    6478    6478       0    6480    6481
    6482    6481    6482    6482       0    6484    6485    6486    6485    6486
    6486       0    6488    6489    6490    6489    6490    6490       0    6492
    6493    6494    6493    6494    6494       0    6496    6497    6498    6497
    6498    6498       0    6500    6501    6502    6501    6502    6502       0
    6504    6505    6506    6505    6506    6506       0    6508    6509    6510
    6509    6510    6510       0    6512    6513    6514    6513    6514    6514
       0    6516    6517    6518    6517    6518    6518       0    6520    6521
    6522    6521    6522    6522       0    6524    6525    6526    6525    6526
    6526       0    6528    6529    6530    6529    6530    6530       0    6532
    6533    6534    6533    6534    6534       0    6536    6537    6538    6537
    6538    6538       0    6540    6541    6542    6541    6542    6542       0
    6544    6545    6546    6545    6546    6546       0    6548    6549    6550
    6549    6550    6550       0    6552    6553    6554    6553    6554    6554
       0    6556    6557    6558    6557    6558    6558       0    6560    6561
    6562    6561    6562    6562       0    6564    6565    6566    6565    6566
    6566       0    6568    6569    6570    6569    6570    6570       0    6572
    6573    6574    6573    6574    6574       0    6576    6577    6578    6577
    6578    6578       0    6580    6581    6582    6581    6582    6582       0
    6584    6585    6586    6585    6586    6586       0    6588    6589    6590
    6589    6590    6590       0    6592    6593    6594    6593    6594    6594
       0    6596    6597    6598    6597    6598    6598       0    6600    6601
    6602    6601    6602    6602       0    6604    6605    6606    6605    6606
    6606       0    6608    6609    6610    6609    6610    6610       0    6612
    6613    6614    6613    6614    6614       0    6616    6617    6618    6617
    6618    6618       0    6620    6621    6622    6621    6622    6622       0
    6624    6625    6626    6625    6626    6626       0    6628    6629    6630
    6629    6630    6630       0    6632    6633    6634    6633    6634    6634
       0    6636    6637    6638    6637    6638    6638       0    6640    6641
    6642    6641    6642    6642       0    6644    6645    6646    6645    6646
    6646       0    6648    6649    6650    6649    6650    6650       0    6652
    6653    6654    6653    6654    6654       0    6656    6657    6658    6657
    6658    6658       0    6660    6661    6662    6661    6662    6662       0
    6664    6665    6666    6665    6666    6666       0    6668    6669    6670
    6669    6670    6670       0    6672    6673    6674    6673    6674    6674
       0    6676    6677    6678    6677    6678    6678       0    6680    6681
    6682    6681    6682    6682       0    6684    6685    6686    6685    6686
    6686       0    6688    6689    6690    6689    6690    6690       0    6692
    6693    6694    6693    6694    6694       0    6696    6697    6698    6697
    6698    6698       0    6700    6701    6702    6701    6702    6702       0
    6704    6705    6706    6705    6706    6706       0    6708    6709    6710
    6709    6710    6710       0    6712    6713    6714    6713    6714    6714
       0    6716    6717    6718    6717    6718    6718       0    6720    6721
    6722    6721    6722    6722       0    6724    6725    6726    6725    6726
    6726       0    6728    6729    6730    6729    6730    6730       0    6732
    6733    6734    6733    6734    6734       0    6736    6737    6738    6737
    6738    6738       0    6740    6741    6742    6741    6742    6742       0
    6744    6745    6746    6745    6746    6746       0    6748    6749    6750
    6749    6750    6750       0    6752    6753    6754    6753    6754    6754
       0    6756    6757    6758    6757    6758    6758       0    6760    6761
    6762    6761    6762    6762       0    6764    6765    6766    6765    6766
    6766       0    6768    6769    6770    6769    6770    6770       0    6772
    6773    6774    6773    6774    6774       0    6776    6777    6778    6777
    6778    6778       0    6780    6781    6782    6781    6782    6782       0
    6784    6785    6786    6785    6786    6786       0    6788    6789    6790
    6789    6790    6790       0    6792    6793    6794    6793    6794    6794
       0    6796    6797    6798    6797    6798    6798       0    6800    6801
    6802    6801    6802    6802       0    6804    6805    6806    6805    6806
    6806       0    6808    6809    6810    6809    6810    6810       0    6812
    6813    6814    6813    6814    6814       0    6816    6817    6818    6817
    6818    6818       0    6820    6821    6822    6821    6822    6822       0
    6824    6825    6826    6825    6826    6826       0    6828    6829    6830
    6829    6830    6830       0    6832    6833    6834    6833    6834    6834
       0    6836    6837    6838    6837    6838    6838       0    6840    6841
    6842    6841    6842    6842       0    6844    6845    6846    6845    6846
    6846       0    6848    6849    6850    6849    6850    6850       0    6852
    6853    6854    6853    6854    6854       0    6856    6857    6858    6857
    6858    6858       0    6860    6861    6862    6861    6862    6862       0
    6864    6865    6866    6865    6866    6866       0    6868    6869    6870
    6869    6870    6870       0    6872    6873    6874    6873    6874    6874
       0    6876    6877    6878    6877    6878    6878       0    6880    6881
    6882    6881    6882    6882       0    6884    6885    6886    6885    6886
    6886       0    6888    6889    6890    6889    6890    6890       0    6892
    6893    6894    6893    6894    6894       0    6896    6897    6898    6897
    6898    6898       0    6900    6901    6902    6901    6902    6902       0
    6904    6905    6906    6905    6906    6906       0    6908    6909    6910
    6909    6910    6910       0    6912    6913    6914    6913    6914    6914
       0    6916    6917    6918    6917    6918    6918       0    6920    6921
    6922    6921    6922    6922       0    6924    6925    6926    6925    6926
    6926       0    6928    6929    6930    6929    6930    6930       0    6932
    6933    6934    6933    6934    6934       0    6936    6937    6938    6937
    6938    6938       0    6940    6941    6942    6941    6942    6942       0
    6944    6945    6946    6945    6946    6946       0    6948    6949    6950
    6949    6950    6950       0    6952    6953    6954    6953    6954    6954
       0    6956    6957    6958    6957    6958    6958       0    6960    6961
    6962    6961    6962    6962       0    6964    6965    6966    6965    6966
    6966       0    6968    6969    6970    6969    6970    6970       0    6972
    6973    6974    6973    6974    6974       0    6976    6977    6978    6977
    6978    6978       0    6980    6981    6982    6981    6982    6982       0
    6984    6985    6986    6985    6986    6986       0    6988    6989    6990
    6989    6990    6990       0    6992    6993    6994    6993    6994    6994
       0    6996    6997    6998    6997    6998    6998       0    7000    7001
    7002    7001    7002    7002       0    7004    7005    7006    7005    7006
    7006       0    7008    7009    7010    7009    7010    7010       0    7012
    7013    7014    7013    7014    7014       0    7016    7017    7018    7017
    7018    7018       0    7020    7021    7022    7021    7022    7022       0
    7024    7025    7026    7025    7026    7026       0    7028    7029    7030
    7029    7030    7030       0    7032    7033    7034    7033    7034    7034
       0    7036    7037    7038    7037    7038    7038       0    7040    7041
    7042    7041    7042    7042       0    7044    7045    7046    7045    7046
    7046       0    7048    7049    7050    7049    7050    7050       0    7052
    7053    7054    7053    7054    7054       0    7056    7057    7058    7057
    7058    7058       0    7060    7061    7062    7061    7062    7062       0
    7064    7065    7066    7065    7066    7066       0    7068    7069    7070
    7069    7070    7070       0    7072    7073    7074    7073    7074    7074
       0    7076    7077    7078    7077    7078    7078       0    7080    7081
    7082    7081    7082    7082       0    7084    7085    7086    7085    7086
    7086       0    7088    7089    7090    7089    7090    7090       0    7092
    7093    7094    7093    7094    7094       0    7096    7097    7098    7097
    7098    7098       0    7100    7101    7102    7101    7102    7102       0
    7104    7105    7106    7105    7106    7106       0    7108    7109    7110
    7109    7110    7110       0    7112    7113    7114    7113    7114    7114
       0    7116    7117    7118    7117    7118    7118       0    7120    7121
    7122    7121    7122    7122       0    7124    7125    7126    7125    7126
    7126       0    7128    7129    7130    7129    7130    7130       0    7132
    7133    7134    7133    7134    7134       0    7136    7137    7138    7137
    7138    7138       0    7140    7141    7142    7141    7142    7142       0
    7144    7145    7146    7145    7146    7146       0    7148    7149    7150
    7149    7150    7150       0    7152    7153    7154    7153    7154    7154
       0    7156    7157    7158    7157    7158    7158       0    7160    7161
    7162    7161    7162    7162       0    7164    7165    7166    7165    7166
    7166       0    7168    7169    7170    7169    7170    7170       0    7172
    7173    7174    7173    7174    7174       0    7176    7177    7178    7177
    7178    7178       0    7180    7181    7182    7181    7182    7182       0
    7184    7185    7186    7185    7186    7186       0    7188    7189    7190
    7189    7190    7190       0    7192    7193    7194    7193    7194    7194
       0    7196    7197    7198    7197    7198    7198       0    7200    7201
    7202    7201    7202    7202       0    7204    7205    7206    7205    7206
    7206       0    7208    7209    7210    7209    7210    7210       0    7212
    7213    7214    7213    7214    7214       0    7216    7217    7218    7217
    7218    7218       0    7220    7221    7222    7221    7222    7222       0
    7224    7225    7226    7225    7226    7226       0    7228    7229    7230
    7229    7230    7230       0    7232    7233    7234    7233    7234    7234
       0    7236    7237    7238    7237    7238    7238       0    7240    7241
    7242    7241    7242    7242       0    7244    7245    7246    7245    7246
    7246       0    7248    7249    7250    7249    7250    7250       0    7252
    7253    7254    7253    7254    7254       0    7256    7257    7258    7257
    7258    7258       0    7260    7261    7262    7261    7262    7262       0
    7264    7265    7266    7265    7266    7266       0    7268    7269    7270
    7269    7270    7270       0    7272    7273    7274    7273    7274    7274
       0    7276    7277    7278    7277    7278    7278       0    7280    7281
    7282    7281    7282    7282       0    7284    7285    7286    7285    7286
    7286       0    7288    7289    7290    7289    7290    7290       0    7292
    7293    7294    7293    7294    7294       0    7296    7297    7298    7297
    7298    7298       0    7300    7301    7302    7301    7302    7302       0
    7304    7305    7306    7305    7306    7306       0    7308    7309    7310
    7309    7310    7310       0    7312    7313    7314    7313    7314    7314
       0    7316    7317    7318    7317    7318    7318       0    7320    7321
    7322    7321    7322    7322       0    7324    7325    7326    7325    7326
    7326       0    7328    7329    7330    7329    7330    7330       0    7332
    7333    7334    7333    7334    7334       0    7336    7337    7338    7337
    7338    7338       0    7340    7341    7342    7341    7342    7342       0
    7344    7345    7346    7345    7346    7346       0    7348    7349    7350
    7349    7350    7350       0    7352    7353    7354    7353    7354    7354
       0    7356    7357    7358    7357    7358    7358       0    7360    7361
    7362    7361    7362    7362       0    7364    7365    7366    7365    7366
    7366       0    7368    7369    7370    7369    7370    7370       0    7372
    7373    7374    7373    7374    7374       0    7376    7377    7378    7377
    7378    7378       0    7380    7381    7382    7381    7382    7382       0
    7384    7385    7386    7385    7386    7386       0    7388    7389    7390
    7389    7390    7390       0    7392    7393    7394    7393    7394    7394
       0    7396    7397    7398    7397    7398    7398       0    7400    7401
    7402    7401    7402    7402       0    7404    7405    7406    7405    7406
    7406       0    7408    7409    7410    7409    7410    7410       0    7412
    7413    7414    7413    7414    7414       0    7416    7417    7418    7417
    7418    7418       0    7420    7421    7422    7421    7422    7422       0
    7424    7425    7426    7425    7426    7426       0    7428    7429    7430
    7429    7430    7430       0    7432    7433    7434    7433    7434    7434
       0    7436    7437    7438    7437    7438    7438       0    7440    7441
    7442    7441    7442    7442       0    7444    7445    7446    7445    7446
    7446       0    7448    7449    7450    7449    7450    7450       0    7452
    7453    7454    7453    7454    7454       0    7456    7457    7458    7457
    7458    7458       0    7460    7461    7462    7461    7462    7462       0
    7464    7465    7466    7465    7466    7466       0    7468    7469    7470
    7469    7470    7470       0    7472    7473    7474    7473    7474    7474
       0    7476    7477    7478    7477    7478    7478       0    7480    7481
    7482    7481    7482    7482       0    7484    7485    7486    7485    7486
    7486       0    7488    7489    7490    7489    7490    7490       0    7492
    7493    7494    7493    7494    7494       0    7496    7497    7498    7497
    7498    7498       0    7500    7501    7502    7501    7502    7502       0
    7504    7505    7506    7505    7506    7506       0    7508    7509    7510
    7509    7510    7510       0    7512    7513    7514    7513    7514    7514
       0    7516    7517    7518    7517    7518    7518       0    7520    7521
    7522    7521    7522    7522       0    7524    7525    7526    7525    7526
    7526       0    7528    7529    7530    7529    7530    7530       0    7532
    7533    7534    7533    7534    7534       0    7536    7537    7538    7537
    7538    7538       0    7540    7541    7542    7541    7542    7542       0
    7544    7545    7546    7545    7546    7546       0    7548    7549    7550
    7549    7550    7550       0    7552    7553    7554    7553    7554    7554
       0    7556    7557    7558    7557    7558    7558       0    7560    7561
    7562    7561    7562    7562       0    7564    7565    7566    7565    7566
    7566       0    7568    7569    7570    7569    7570    7570       0    7572
    7573    7574    7573    7574    7574       0    7576    7577    7578    7577
    7578    7578       0    7580    7581    7582    7581    7582    7582       0
    7584    7585    7586    7585    7586    7586       0    7588    7589    7590
    7589    7590    7590       0    7592    7593    7594    7593    7594    7594
       0    7596    7597    7598    7597    7598    7598       0    7600    7601
    7602    7601    7602    7602       0    7604    7605    7606    7605    7606
    7606       0    7608    7609    7610    7609    7610    7610       0    7612
    7613    7614    7613    7614    7614       0    7616    7617    7618    7617
    7618    7618       0    7620    7621    7622    7621    7622    7622       0
    7624    7625    7626    7625    7626    7626       0    7628    7629    7630
    7629    7630    7630       0    7632    7633    7634    7633    7634    7634
       0    7636    7637    7638    7637    7638    7638       0    7640    7641
    7642    7641    7642    7642       0    7644    7645    7646    7645    7646
    7646       0    7648    7649    7650    7649    7650    7650       0    7652
    7653    7654    7653    7654    7654       0    7656    7657    7658    7657
    7658    7658       0    7660    7661    7662    7661    7662    7662       0
    7664    7665    7666    7665    7666    7666       0    7668    7669    7670
    7669    7670    7670       0    7672    7673    7674    7673    7674    7674
       0    7676    7677    7678    7677    7678    7678       0    7680    7681
    7682    7681    7682    7682       0    7684    7685    7686    7685    7686
    7686       0    7688    7689    7690    7689    7690    7690       0    7692
    7693    7694    7693    7694    7694       0    7696    7697    7698    7697
    7698    7698       0    7700    7701    7702    7701    7702    7702       0
    7704    7705    7706    7705    7706    7706       0    7708    7709    7710
    7709    7710    7710       0    7712    7713    7714    7713    7714    7714
       0    7716    7717    7718    7717    7718    7718       0    7720    7721
    7722    7721    7722    7722       0    7724    7725    7726    7725    7726
    7726       0    7728    7729    7730    7729    7730    7730       0    7732
    7733    7734    7733    7734    7734       0    7736    7737    7738    7737
    7738    7738       0    7740    7741    7742    7741    7742    7742       0
    7744    7745    7746    7745    7746    7746       0    7748    7749    7750
    7749    7750    7750       0    7752    7753    7754    7753    7754    7754
       0    7756    7757    7758    7757    7758    7758       0    7760    7761
    7762    7761    7762    7762       0    7764    7765    7766    7765    7766
    7766       0    7768    7769    7770    7769    7770    7770       0    7772
    7773    7774    7773    7774    7774       0    7776    7777    7778    7777
    7778    7778       0    7780    7781    7782    7781    7782    7782       0
    7784    7785    7786    7785    7786    7786       0    7788    7789    7790
    7789    7790    7790       0    7792    7793    7794    7793    7794    7794
       0    7796    7797    7798    7797    7798    7798       0    7800    7801
    7802    7801    7802    7802       0    7804    7805    7806    7805    7806
    7806       0    7808    7809    7810    7809    7810    7810       0    7812
    7813    7814    7813    7814    7814       0    7816    7817    7818    7817
    7818    7818       0    7820    7821    7822    7821    7822    7822       0
    7824    7825    7826    7825    7826    7826       0    7828    7829    7830
    7829    7830    7830       0    7832    7833    7834    7833    7834    7834
       0    7836    7837    7838    7837    7838    7838       0    7840    7841
    7842    7841    7842    7842       0    7844    7845    7846    7845    7846
    7846       0    7848    7849    7850    7849    7850    7850       0    7852
    7853    7854    7853    7854    7854       0    7856    7857    7858    7857
    7858    7858       0    7860    7861    7862    7861    7862    7862       0
    7864    7865    7866    7865    7866    7866       0    7868    7869    7870
    7869    7870    7870       0    7872    7873    7874    7873    7874    7874
       0    7876    7877    7878    7877    7878    7878       0    7880    7881
    7882    7881    7882    7882       0    7884    7885    7886    7885    7886
    7886       0    7888    7889    7890    7889    7890    7890       0    7892
    7893    7894    7893    7894    7894       0    7896    7897    7898    7897
    7898    7898       0    7900    7901    7902    7901    7902    7902       0
    7904    7905    7906    7905    7906    7906       0    7908    7909    7910
    7909    7910    7910       0    7912    7913    7914    7913    7914    7914
       0    7916    7917    7918    7917    7918    7918       0    7920    7921
    7922    7921    7922    7922       0    7924    7925    7926    7925    7926
    7926       0    7928    7929    7930    7929    7930    7930       0    7932
    7933    7934    7933    7934    7934       0    7936    7937    7938    7937
    7938    7938       0    7940    7941    7942    7941    7942    7942       0
    7944    7945    7946    7945    7946    7946       0    7948    7949    7950
    7949    7950    7950       0    7952    7953    7954    7953    7954    7954
       0    7956    7957    7958    7957    7958    7958       0    7960    7961
    7962    7961    7962    7962       0    7964    7965    7966    7965    7966
    7966       0    7968    7969    7970    7969    7970    7970       0    7972
    7973    7974    7973    7974    7974       0    7976    7977    7978    7977
    7978    7978       0    7980    7981    7982    7981    7982    7982       0
    7984    7985    7986    7985    7986    7986       0    7988    7989    7990
    7989    7990    7990       0    7992    7993    7994    7993    7994    7994
       0    7996    7997    7998    7997    7998    7998       0    8000    8001
    8002    8001    8002    8002       0    8004    8005    8006    8005    8006
    8006       0    8008    8009    8010    8009    8010    8010       0    8012
    8013    8014    8013    8014    8014       0    8016    8017    8018    8017
    8018    8018       0    8020    8021    8022    8021    8022    8022       0
    8024    8025    8026    8025    8026    8026       0    8028    8029    8030
    8029    8030    8030       0    8032    8033    8034    8033    8034    8034
       0    8036    8037    8038    8037    8038    8038       0    8040    8041
    8042    8041    8042    8042       0    8044    8045    8046    8045    8046
    8046       0    8048    8049    8050    8049    8050    8050       0    8052
    8053    8054    8053    8054    8054       0    8056    8057    8058    8057
    8058    8058       0    8060    8061    8062    8061    8062    8062       0
    8064    8065    8066    8065    8066    8066       0    8068    8069    8070
    8069    8070    8070       0    8072    8073    8074    8073    8074    8074
       0    8076    8077    8078    8077    8078    8078       0    8080    8081
    8082    8081    8082    8082       0    8084    8085    8086    8085    8086
    8086       0    8088    8089    8090    8089    8090    8090       0    8092
    8093    8094    8093    8094    8094       0    8096    8097    8098    8097
    8098    8098       0    8100    8101    8102    8101    8102    8102       0
    8104    8105    8106    8105    8106    8106       0    8108    8109    8110
    8109    8110    8110       0    8112    8113    8114    8113    8114    8114
       0    8116    8117    8118    8117    8118    8118       0    8120    8121
    8122    8121    8122    8122       0    8124    8125    8126    8125    8126
    8126       0    8128    8129    8130    8129    8130    8130       0    8132
    8133    8134    8133    8134    8134       0    8136    8137    8138    8137
    8138    8138       0    8140    8141    8142    8141    8142    8142       0
    8144    8145    8146    8145    8146    8146       0    8148    8149    8150
    8149    8150    8150       0    8152    8153    8154    8153    8154    8154
       0    8156    8157    8158    8157    8158    8158       0    8160    8161
    8162    8161    8162    8162       0    8164    8165    8166    8165    8166
    8166       0    8168    8169    8170    8169    8170    8170       0    8172
    8173    8174    8173    8174    8174       0    8176    8177    8178    8177
    8178    8178       0    8180    8181    8182    8181    8182    8182       0
    8184    8185    8186    8185    8186    8186       0    8188    8189    8190
    8189    8190    8190       0    8192    8193    8194    8193    8194    8194
       0    8196    8197    8198    8197    8198    8198       0    8200    8201
    8202    8201    8202    8202       0    8204    8205    8206    8205    8206
    8206       0    8208    8209    8210    8209    8210    8210       0    8212
    8213    8214    8213    8214    8214       0    8216    8217    8218    8217
    8218    8218       0    8220    8221    8222    8221    8222    8222       0
    8224    8225    8226    8225    8226    8226       0    8228    8229    8230
    8229    8230    8230       0    8232    8233    8234    8233    8234    8234
       0    8236    8237    8238    8237    8238    8238       0    8240    8241
    8242    8241    8242    8242       0    8244    8245    8246    8245    8246
    8246       0    8248    8249    8250    8249    8250    8250       0    8252
    8253    8254    8253    8254    8254       0    8256    8257    8258    8257
    8258    8258       0    8260    8261    8262    8261    8262    8262       0
    8264    8265    8266    8265    8266    8266       0    8268    8269    8270
    8269    8270    8270       0    8272    8273    8274    8273    8274    8274
       0    8276    8277    8278    8277    8278    8278       0    8280    8281
    8282    8281    8282    8282       0    8284    8285    8286    8285    8286
    8286       0    8288    8289    8290    8289    8290    8290       0    8292
    8293    8294    8293    8294    8294       0    8296    8297    8298    8297
    8298    8298       0    8300    8301    8302    8301    8302    8302       0
    8304    8305    8306    8305    8306    8306       0    8308    8309    8310
    8309    8310    8310       0    8312    8313    8314    8313    8314    8314
       0    8316    8317    8318    8317    8318    8318       0    8320    8321
    8322    8321    8322    8322       0    8324    8325    8326    8325    8326
    8326       0    8328    8329    8330    8329    8330    8330       0    8332
    8333    8334    8333    8334    8334       0    8336    8337    8338    8337
    8338    8338       0    8340    8341    8342    8341    8342    8342       0
    8344    8345    8346    8345    8346    8346       0    8348    8349    8350
    8349    8350    8350       0    8352    8353    8354    8353    8354    8354
       0    8356    8357    8358    8357    8358    8358       0    8360    8361
    8362    8361    8362    8362       0    8364    8365    8366    8365    8366
    8366       0    8368    8369    8370    8369    8370    8370       0    8372
    8373    8374    8373    8374    8374       0    8376    8377    8378    8377
    8378    8378       0    8380    8381    8382    8381    8382    8382       0
    8384    8385    8386    8385    8386    8386       0    8388    8389    8390
    8389    8390    8390       0    8392    8393    8394    8393    8394    8394
       0    8396    8397    8398    8397    8398    8398       0    8400    8401
    8402    8401    8402    8402       0    8404    8405    8406    8405    8406
    8406       0    8408    8409    8410    8409    8410    8410       0    8412
    8413    8414    8413    8414    8414       0    8416    8417    8418    8417
    8418    8418       0    8420    8421    8422    8421    8422    8422       0
    8424    8425    8426    8425    8426    8426       0    8428    8429    8430
    8429    8430    8430       0    8432    8433    8434    8433    8434    8434
       0    8436    8437    8438    8437    8438    8438       0    8440    8441
    8442    8441    8442    8442       0    8444    8445    8446    8445    8446
    8446       0    8448    8449    8450    8449    8450    8450       0    8452
    8453    8454    8453    8454    8454       0    8456    8457    8458    8457
    8458    8458       0    8460    8461    8462    8461    8462    8462       0
    8464    8465    8466    8465    8466    8466       0    8468    8469    8470
    8469    8470    8470       0    8472    8473    8474    8473    8474    8474
       0    8476    8477    8478    8477    8478    8478       0    8480    8481
    8482    8481    8482    8482       0    8484    8485    8486    8485    8486
    8486       0    8488    8489    8490    8489    8490    8490       0    8492
    8493    8494    8493    8494    8494       0    8496    8497    8498    8497
    8498    8498       0    8500    8501    8502    8501    8502    8502       0
    8504    8505    8506    8505    8506    8506       0    8508    8509    8510
    8509    8510    8510       0    8512    8513    8514    8513    8514    8514
       0    8516    8517    8518    8517    8518    8518       0    8520    8521
    8522    8521    8522    8522       0    8524    8525    8526    8525    8526
    8526       0    8528    8529    8530    8529    8530    8530       0    8532
    8533    8534    8533    8534    8534       0    8536    8537    8538    8537
    8538    8538       0    8540    8541    8542    8541    8542    8542       0
    8544    8545    8546    8545    8546    8546       0    8548    8549    8550
    8549    8550    8550       0    8552    8553    8554    8553    8554    8554
       0    8556    8557    8558    8557    8558    8558       0    8560    8561
    8562    8561    8562    8562       0    8564    8565    8566    8565    8566
    8566       0    8568    8569    8570    8569    8570    8570       0    8572
    8573    8574    8573    8574    8574       0    8576    8577    8578    8577
    8578    8578       0    8580    8581    8582    8581    8582    8582       0
    8584    8585    8586    8585    8586    8586       0    8588    8589    8590
    8589    8590    8590       0    8592    8593    8594    8593    8594    8594
       0    8596    8597    8598    8597    8598    8598       0    8600    8601
    8602    8601    8602    8602       0    8604    8605    8606    8605    8606
    8606       0    8608    8609    8610    8609    8610    8610       0    8612
    8613    8614    8613    8614    8614       0    8616    8617    8618    8617
    8618    8618       0    8620    8621    8622    8621    8622    8622       0
    8624    8625    8626    8625    8626    8626       0    8628    8629    8630
    8629    8630    8630       0    8632    8633    8634    8633    8634    8634
       0    8636    8637    8638    8637    8638    8638       0    8640    8641
    8642    8641    8642    8642       0    8644    8645    8646    8645    8646
    8646       0    8648    8649    8650    8649    8650    8650       0    8652
    8653    8654    8653    8654    8654       0    8656    8657    8658    8657
    8658    8658       0    8660    8661    8662    8661    8662    8662       0
    8664    8665    8666    8665    8666    8666       0    8668    8669    8670
    8669    8670    8670       0    8672    8673    8674    8673    8674    8674
       0    8676    8677    8678    8677    8678    8678       0    8680    8681
    8682    8681    8682    8682       0    8684    8685    8686    8685    8686
    8686       0    8688    8689    8690    8689    8690    8690       0    8692
    8693    8694    8693    8694    8694       0    8696    8697    8698    8697
    8698    8698       0    8700    8701    8702    8701    8702    8702       0
    8704    8705    8706    8705    8706    8706       0    8708    8709    8710
    8709    8710    8710       0    8712    8713    8714    8713    8714    8714
       0    8716    8717    8718    8717    8718    8718       0    8720    8721
    8722    8721    8722    8722       0    8724    8725    8726    8725    8726
    8726       0    8728    8729    8730    8729    8730    8730       0    8732
    8733    8734    8733    8734    8734       0    8736    8737    8738    8737
    8738    8738       0    8740    8741    8742    8741    8742    8742       0
    8744    8745    8746    8745    8746    8746       0    8748    8749    8750
    8749    8750    8750       0    8752    8753    8754    8753    8754    8754
       0    8756    8757    8758    8757    8758    8758       0    8760    8761
    8762    8761    8762    8762       0
%FLAG HBOND_ACOEF                                                               
%FORMAT(5E16.8)                                                                 

%FLAG HBOND_BCOEF                                                               
%FORMAT(5E16.8)                                                                 

%FLAG HBCUT                                                                     
%FORMAT(5E16.8)                                                                 

%FLAG AMBER_ATOM_TYPE                                                           
%FORMAT(20a4)                                                                   
Na+ Cl- Na+ Cl- Na+ Cl- Na+ Cl- Na+ Cl- o   c   ns  cc  nu  nu  ca  ca  ca  ca  
ca  ca  nd  cd  cc  nc  cd  na  hn  hn  hn  ha  ha  ha  ha  ha  h5  hn  OW  HW  
HW  EP  OW  HW  HW  EP  OW  HW  HW  EP  OW  HW  HW  EP  OW  HW  HW  EP  OW  HW  
HW  EP  OW  HW  HW  EP  OW  HW  HW  EP  OW  HW  HW  EP  OW  HW  HW  EP  OW  HW  
HW  EP  OW  HW  HW  EP  OW  HW  HW  EP  OW  HW  HW  EP  OW  HW  HW  EP  OW  HW  
HW  EP  OW  HW  HW  EP  OW  HW  HW  EP  OW  HW  HW  EP  OW  HW  HW  EP  OW  HW  
HW  EP  OW  HW  HW  EP  OW  HW  HW  EP  OW  HW  HW  EP  OW  HW  HW  EP  OW  HW  
HW  EP  OW  HW  HW  EP  OW  HW  HW  EP  OW  HW  HW  EP  OW  HW  HW  EP  OW  HW  
HW  EP  OW  HW  HW  EP  OW  HW  HW  EP  OW  HW  HW  EP  OW  HW  HW  EP  OW  HW  
HW  EP  OW  HW  HW  EP  OW  HW  HW  EP  OW  HW  HW  EP  OW  HW  HW  EP  OW  HW  
HW  EP  OW  HW  HW  EP  OW  HW  HW  EP  OW  HW  HW  EP  OW  HW  HW  EP  OW  HW  
HW  EP  OW  HW  HW  EP  OW  HW  HW  EP  OW  HW  HW  EP  OW  HW  HW  EP  OW  HW  
HW  EP  OW  HW  HW  EP  OW  HW  HW  EP  OW  HW  HW  EP  OW  HW  HW  EP  OW  HW  
HW  EP  OW  HW  HW  EP  OW  HW  HW  EP  OW  HW  HW  EP  OW  HW  HW  EP  OW  HW  
HW  EP  OW  HW  HW  EP  OW  HW  HW  EP  OW  HW  HW  EP  OW  HW  HW  EP  OW  HW  
HW  EP  OW  HW  HW  EP  OW  HW  HW  EP  OW  HW  HW  EP  OW  HW  HW  EP  OW  HW  
HW  EP  OW  HW  HW  EP  OW  HW  HW  EP  OW  HW  HW  EP  OW  HW  HW  EP  OW  HW  
HW  EP  OW  HW  HW  EP  OW  HW  HW  EP  OW  HW  HW  EP  OW  HW  HW  EP  OW  HW  
HW  EP  OW  HW  HW  EP  OW  HW  HW  EP  OW  HW  HW  EP  OW  HW  HW  EP  OW  HW  
HW  EP  OW  HW  HW  EP  OW  HW  HW  EP  OW  HW  HW  EP  OW  HW  HW  EP  OW  HW  
HW  EP  OW  HW  HW  EP  OW  HW  HW  EP  OW  HW  HW  EP  OW  HW  HW  EP  OW  HW  
HW  EP  OW  HW  HW  EP  OW  HW  HW  EP  OW  HW  HW  EP  OW  HW  HW  EP  OW  HW  
HW  EP  OW  HW  HW  EP  OW  HW  HW  EP  OW  HW  HW  EP  OW  HW  HW  EP  OW  HW  
HW  EP  OW  HW  HW  EP  OW  HW  HW  EP  OW  HW  HW  EP  OW  HW  HW  EP  OW  HW  
HW  EP  OW  HW  HW  EP  OW  HW  HW  EP  OW  HW  HW  EP  OW  HW  HW  EP  OW  HW  
HW  EP  OW  HW  HW  EP  OW  HW  HW  EP  OW  HW  HW  EP  OW  HW  HW  EP  OW  HW  
HW  EP  OW  HW  HW  EP  OW  HW  HW  EP  OW  HW  HW  EP  OW  HW  HW  EP  OW  HW  
HW  EP  OW  HW  HW  EP  OW  HW  HW  EP  OW  HW  HW  EP  OW  HW  HW  EP  OW  HW  
HW  EP  OW  HW  HW  EP  OW  HW  HW  EP  OW  HW  HW  EP  OW  HW  HW  EP  OW  HW  
HW  EP  OW  HW  HW  EP  OW  HW  HW  EP  OW  HW  HW  EP  OW  HW  HW  EP  OW  HW  
HW  EP  OW  HW  HW  EP  OW  HW  HW  EP  OW  HW  HW  EP  OW  HW  HW  EP  OW  HW  
HW  EP  OW  HW  HW  EP  OW  HW  HW  EP  OW  HW  HW  EP  OW  HW  HW  EP  OW  HW  
HW  EP  OW  HW  HW  EP  OW  HW  HW  EP  OW  HW  HW  EP  OW  HW  HW  EP  OW  HW  
HW  EP  OW  HW  HW  EP  OW  HW  HW  EP  OW  HW  HW  EP  OW  HW  HW  EP  OW  HW  
HW  EP  OW  HW  HW  EP  OW  HW  HW  EP  OW  HW  HW  EP  OW  HW  HW  EP  OW  HW  
HW  EP  OW  HW  HW  EP  OW  HW  HW  EP  OW  HW  HW  EP  OW  HW  HW  EP  OW  HW  
HW  EP  OW  HW  HW  EP  OW  HW  HW  EP  OW  HW  HW  EP  OW  HW  HW  EP  OW  HW  
HW  EP  OW  HW  HW  EP  OW  HW  HW  EP  OW  HW  HW  EP  OW  HW  HW  EP  OW  HW  
HW  EP  OW  HW  HW  EP  OW  HW  HW  EP  OW  HW  HW  EP  OW  HW  HW  EP  OW  HW  
HW  EP  OW  HW  HW  EP  OW  HW  HW  EP  OW  HW  HW  EP  OW  HW  HW  EP  OW  HW  
HW  EP  OW  HW  HW  EP  OW  HW  HW  EP  OW  HW  HW  EP  OW  HW  HW  EP  OW  HW  
HW  EP  OW  HW  HW  EP  OW  HW  HW  EP  OW  HW  HW  EP  OW  HW  HW  EP  OW  HW  
HW  EP  OW  HW  HW  EP  OW  HW  HW  EP  OW  HW  HW  EP  OW  HW  HW  EP  OW  HW  
HW  EP  OW  HW  HW  EP  OW  HW  HW  EP  OW  HW  HW  EP  OW  HW  HW  EP  OW  HW  
HW  EP  OW  HW  HW  EP  OW  HW  HW  EP  OW  HW  HW  EP  OW  HW  HW  EP  OW  HW  
HW  EP  OW  HW  HW  EP  OW  HW  HW  EP  OW  HW  HW  EP  OW  HW  HW  EP  OW  HW  
HW  EP  OW  HW  HW  EP  OW  HW  HW  EP  OW  HW  HW  EP  OW  HW  HW  EP  OW  HW  
HW  EP  OW  HW  HW  EP  OW  HW  HW  EP  OW  HW  HW  EP  OW  HW  HW  EP  OW  HW  
HW  EP  OW  HW  HW  EP  OW  HW  HW  EP  OW  HW  HW  EP  OW  HW  HW  EP  OW  HW  
HW  EP  OW  HW  HW  EP  OW  HW  HW  EP  OW  HW  HW  EP  OW  HW  HW  EP  OW  HW  
HW  EP  OW  HW  HW  EP  OW  HW  HW  EP  OW  HW  HW  EP  OW  HW  HW  EP  OW  HW  
HW  EP  OW  HW  HW  EP  OW  HW  HW  EP  OW  HW  HW  EP  OW  HW  HW  EP  OW  HW  
HW  EP  OW  HW  HW  EP  OW  HW  HW  EP  OW  HW  HW  EP  OW  HW  HW  EP  OW  HW  
HW  EP  OW  HW  HW  EP  OW  HW  HW  EP  OW  HW  HW  EP  OW  HW  HW  EP  OW  HW  
HW  EP  OW  HW  HW  EP  OW  HW  HW  EP  OW  HW  HW  EP  OW  HW  HW  EP  OW  HW  
HW  EP  OW  HW  HW  EP  OW  HW  HW  EP  OW  HW  HW  EP  OW  HW  HW  EP  OW  HW  
HW  EP  OW  HW  HW  EP  OW  HW  HW  EP  OW  HW  HW  EP  OW  HW  HW  EP  OW  HW  
HW  EP  OW  HW  HW  EP  OW  HW  HW  EP  OW  HW  HW  EP  OW  HW  HW  EP  OW  HW  
HW  EP  OW  HW  HW  EP  OW  HW  HW  EP  OW  HW  HW  EP  OW  HW  HW  EP  OW  HW  
HW  EP  OW  HW  HW  EP  OW  HW  HW  EP  OW  HW  HW  EP  OW  HW  HW  EP  OW  HW  
HW  EP  OW  HW  HW  EP  OW  HW  HW  EP  OW  HW  HW  EP  OW  HW  HW  EP  OW  HW  
HW  EP  OW  HW  HW  EP  OW  HW  HW  EP  OW  HW  HW  EP  OW  HW  HW  EP  OW  HW  
HW  EP  OW  HW  HW  EP  OW  HW  HW  EP  OW  HW  HW  EP  OW  HW  HW  EP  OW  HW  
HW  EP  OW  HW  HW  EP  OW  HW  HW  EP  OW  HW  HW  EP  OW  HW  HW  EP  OW  HW  
HW  EP  OW  HW  HW  EP  OW  HW  HW  EP  OW  HW  HW  EP  OW  HW  HW  EP  OW  HW  
HW  EP  OW  HW  HW  EP  OW  HW  HW  EP  OW  HW  HW  EP  OW  HW  HW  EP  OW  HW  
HW  EP  OW  HW  HW  EP  OW  HW  HW  EP  OW  HW  HW  EP  OW  HW  HW  EP  OW  HW  
HW  EP  OW  HW  HW  EP  OW  HW  HW  EP  OW  HW  HW  EP  OW  HW  HW  EP  OW  HW  
HW  EP  OW  HW  HW  EP  OW  HW  HW  EP  OW  HW  HW  EP  OW  HW  HW  EP  OW  HW  
HW  EP  OW  HW  HW  EP  OW  HW  HW  EP  OW  HW  HW  EP  OW  HW  HW  EP  OW  HW  
HW  EP  OW  HW  HW  EP  OW  HW  HW  EP  OW  HW  HW  EP  OW  HW  HW  EP  OW  HW  
HW  EP  OW  HW  HW  EP  OW  HW  HW  EP  OW  HW  HW  EP  OW  HW  HW  EP  OW  HW  
HW  EP  OW  HW  HW  EP  OW  HW  HW  EP  OW  HW  HW  EP  OW  HW  HW  EP  OW  HW  
HW  EP  OW  HW  HW  EP  OW  HW  HW  EP  OW  HW  HW  EP  OW  HW  HW  EP  OW  HW  
HW  EP  OW  HW  HW  EP  OW  HW  HW  EP  OW  HW  HW  EP  OW  HW  HW  EP  OW  HW  
HW  EP  OW  HW  HW  EP  OW  HW  HW  EP  OW  HW  HW  EP  OW  HW  HW  EP  OW  HW  
HW  EP  OW  HW  HW  EP  OW  HW  HW  EP  OW  HW  HW  EP  OW  HW  HW  EP  OW  HW  
HW  EP  OW  HW  HW  EP  OW  HW  HW  EP  OW  HW  HW  EP  OW  HW  HW  EP  OW  HW  
HW  EP  OW  HW  HW  EP  OW  HW  HW  EP  OW  HW  HW  EP  OW  HW  HW  EP  OW  HW  
HW  EP  OW  HW  HW  EP  OW  HW  HW  EP  OW  HW  HW  EP  OW  HW  HW  EP  OW  HW  
HW  EP  OW  HW  HW  EP  OW  HW  HW  EP  OW  HW  HW  EP  OW  HW  HW  EP  OW  HW  
HW  EP  OW  HW  HW  EP  OW  HW  HW  EP  OW  HW  HW  EP  OW  HW  HW  EP  OW  HW  
HW  EP  OW  HW  HW  EP  OW  HW  HW  EP  OW  HW  HW  EP  OW  HW  HW  EP  OW  HW  
HW  EP  OW  HW  HW  EP  OW  HW  HW  EP  OW  HW  HW  EP  OW  HW  HW  EP  OW  HW  
HW  EP  OW  HW  HW  EP  OW  HW  HW  EP  OW  HW  HW  EP  OW  HW  HW  EP  OW  HW  
HW  EP  OW  HW  HW  EP  OW  HW  HW  EP  OW  HW  HW  EP  OW  HW  HW  EP  OW  HW  
HW  EP  OW  HW  HW  EP  OW  HW  HW  EP  OW  HW  HW  EP  OW  HW  HW  EP  OW  HW  
HW  EP  OW  HW  HW  EP  OW  HW  HW  EP  OW  HW  HW  EP  OW  HW  HW  EP  OW  HW  
HW  EP  OW  HW  HW  EP  OW  HW  HW  EP  OW  HW  HW  EP  OW  HW  HW  EP  OW  HW  
HW  EP  OW  HW  HW  EP  OW  HW  HW  EP  OW  HW  HW  EP  OW  HW  HW  EP  OW  HW  
HW  EP  OW  HW  HW  EP  OW  HW  HW  EP  OW  HW  HW  EP  OW  HW  HW  EP  OW  HW  
HW  EP  OW  HW  HW  EP  OW  HW  HW  EP  OW  HW  HW  EP  OW  HW  HW  EP  OW  HW  
HW  EP  OW  HW  HW  EP  OW  HW  HW  EP  OW  HW  HW  EP  OW  HW  HW  EP  OW  HW  
HW  EP  OW  HW  HW  EP  OW  HW  HW  EP  OW  HW  HW  EP  OW  HW  HW  EP  OW  HW  
HW  EP  OW  HW  HW  EP  OW  HW  HW  EP  OW  HW  HW  EP  OW  HW  HW  EP  OW  HW  
HW  EP  OW  HW  HW  EP  OW  HW  HW  EP  OW  HW  HW  EP  OW  HW  HW  EP  OW  HW  
HW  EP  OW  HW  HW  EP  OW  HW  HW  EP  OW  HW  HW  EP  OW  HW  HW  EP  OW  HW  
HW  EP  OW  HW  HW  EP  OW  HW  HW  EP  OW  HW  HW  EP  OW  HW  HW  EP  OW  HW  
HW  EP  OW  HW  HW  EP  OW  HW  HW  EP  OW  HW  HW  EP  OW  HW  HW  EP  OW  HW  
HW  EP  OW  HW  HW  EP  OW  HW  HW  EP  OW  HW  HW  EP  OW  HW  HW  EP  OW  HW  
HW  EP  OW  HW  HW  EP  OW  HW  HW  EP  OW  HW  HW  EP  OW  HW  HW  EP  OW  HW  
HW  EP  OW  HW  HW  EP  OW  HW  HW  EP  OW  HW  HW  EP  OW  HW  HW  EP  OW  HW  
HW  EP  OW  HW  HW  EP  OW  HW  HW  EP  OW  HW  HW  EP  OW  HW  HW  EP  OW  HW  
HW  EP  OW  HW  HW  EP  OW  HW  HW  EP  OW  HW  HW  EP  OW  HW  HW  EP  OW  HW  
HW  EP  OW  HW  HW  EP  OW  HW  HW  EP  OW  HW  HW  EP  OW  HW  HW  EP  OW  HW  
HW  EP  OW  HW  HW  EP  OW  HW  HW  EP  OW  HW  HW  EP  OW  HW  HW  EP  OW  HW  
HW  EP  OW  HW  HW  EP  OW  HW  HW  EP  OW  HW  HW  EP  OW  HW  HW  EP  OW  HW  
HW  EP  OW  HW  HW  EP  OW  HW  HW  EP  OW  HW  HW  EP  OW  HW  HW  EP  OW  HW  
HW  EP  OW  HW  HW  EP  OW  HW  HW  EP  OW  HW  HW  EP  OW  HW  HW  EP  OW  HW  
HW  EP  OW  HW  HW  EP  OW  HW  HW  EP  OW  HW  HW  EP  OW  HW  HW  EP  OW  HW  
HW  EP  OW  HW  HW  EP  OW  HW  HW  EP  OW  HW  HW  EP  OW  HW  HW  EP  OW  HW  
HW  EP  OW  HW  HW  EP  OW  HW  HW  EP  OW  HW  HW  EP  OW  HW  HW  EP  OW  HW  
HW  EP  OW  HW  HW  EP  OW  HW  HW  EP  OW  HW  HW  EP  OW  HW  HW  EP  OW  HW  
HW  EP  OW  HW  HW  EP  OW  HW  HW  EP  OW  HW  HW  EP  OW  HW  HW  EP  OW  HW  
HW  EP  OW  HW  HW  EP  OW  HW  HW  EP  OW  HW  HW  EP  OW  HW  HW  EP  OW  HW  
HW  EP  OW  HW  HW  EP  OW  HW  HW  EP  OW  HW  HW  EP  OW  HW  HW  EP  OW  HW  
HW  EP  OW  HW  HW  EP  OW  HW  HW  EP  OW  HW  HW  EP  OW  HW  HW  EP  OW  HW  
HW  EP  OW  HW  HW  EP  OW  HW  HW  EP  OW  HW  HW  EP  OW  HW  HW  EP  OW  HW  
HW  EP  OW  HW  HW  EP  OW  HW  HW  EP  OW  HW  HW  EP  OW  HW  HW  EP  OW  HW  
HW  EP  OW  HW  HW  EP  OW  HW  HW  EP  OW  HW  HW  EP  OW  HW  HW  EP  OW  HW  
HW  EP  OW  HW  HW  EP  OW  HW  HW  EP  OW  HW  HW  EP  OW  HW  HW  EP  OW  HW  
HW  EP  OW  HW  HW  EP  OW  HW  HW  EP  OW  HW  HW  EP  OW  HW  HW  EP  OW  HW  
HW  EP  OW  HW  HW  EP  OW  HW  HW  EP  OW  HW  HW  EP  OW  HW  HW  EP  OW  HW  
HW  EP  OW  HW  HW  EP  OW  HW  HW  EP  OW  HW  HW  EP  OW  HW  HW  EP  OW  HW  
HW  EP  OW  HW  HW  EP  OW  HW  HW  EP  OW  HW  HW  EP  OW  HW  HW  EP  OW  HW  
HW  EP  OW  HW  HW  EP  OW  HW  HW  EP  OW  HW  HW  EP  OW  HW  HW  EP  OW  HW  
HW  EP  OW  HW  HW  EP  OW  HW  HW  EP  OW  HW  HW  EP  OW  HW  HW  EP  OW  HW  
HW  EP  OW  HW  HW  EP  OW  HW  HW  EP  OW  HW  HW  EP  OW  HW  HW  EP  OW  HW  
HW  EP  OW  HW  HW  EP  OW  HW  HW  EP  OW  HW  HW  EP  OW  HW  HW  EP  OW  HW  
HW  EP  OW  HW  HW  EP  OW  HW  HW  EP  OW  HW  HW  EP  OW  HW  HW  EP  OW  HW  
HW  EP  OW  HW  HW  EP  OW  HW  HW  EP  OW  HW  HW  EP  OW  HW  HW  EP  OW  HW  
HW  EP  OW  HW  HW  EP  OW  HW  HW  EP  OW  HW  HW  EP  OW  HW  HW  EP  OW  HW  
HW  EP  OW  HW  HW  EP  OW  HW  HW  EP  OW  HW  HW  EP  OW  HW  HW  EP  OW  HW  
HW  EP  OW  HW  HW  EP  OW  HW  HW  EP  OW  HW  HW  EP  OW  HW  HW  EP  OW  HW  
HW  EP  OW  HW  HW  EP  OW  HW  HW  EP  OW  HW  HW  EP  OW  HW  HW  EP  OW  HW  
HW  EP  OW  HW  HW  EP  OW  HW  HW  EP  OW  HW  HW  EP  OW  HW  HW  EP  OW  HW  
HW  EP  OW  HW  HW  EP  OW  HW  HW  EP  OW  HW  HW  EP  OW  HW  HW  EP  OW  HW  
HW  EP  OW  HW  HW  EP  OW  HW  HW  EP  OW  HW  HW  EP  OW  HW  HW  EP  OW  HW  
HW  EP  OW  HW  HW  EP  OW  HW  HW  EP  OW  HW  HW  EP  OW  HW  HW  EP  OW  HW  
HW  EP  OW  HW  HW  EP  OW  HW  HW  EP  OW  HW  HW  EP  OW  HW  HW  EP  OW  HW  
HW  EP  OW  HW  HW  EP  OW  HW  HW  EP  OW  HW  HW  EP  OW  HW  HW  EP  OW  HW  
HW  EP  OW  HW  HW  EP  OW  HW  HW  EP  OW  HW  HW  EP  OW  HW  HW  EP  OW  HW  
HW  EP  OW  HW  HW  EP  OW  HW  HW  EP  OW  HW  HW  EP  OW  HW  HW  EP  OW  HW  
HW  EP  OW  HW  HW  EP  OW  HW  HW  EP  OW  HW  HW  EP  OW  HW  HW  EP  OW  HW  
HW  EP  OW  HW  HW  EP  OW  HW  HW  EP  OW  HW  HW  EP  OW  HW  HW  EP  OW  HW  
HW  EP  OW  HW  HW  EP  OW  HW  HW  EP  OW  HW  HW  EP  OW  HW  HW  EP  OW  HW  
HW  EP  OW  HW  HW  EP  OW  HW  HW  EP  OW  HW  HW  EP  OW  HW  HW  EP  OW  HW  
HW  EP  OW  HW  HW  EP  OW  HW  HW  EP  OW  HW  HW  EP  OW  HW  HW  EP  OW  HW  
HW  EP  OW  HW  HW  EP  OW  HW  HW  EP  OW  HW  HW  EP  OW  HW  HW  EP  OW  HW  
HW  EP  OW  HW  HW  EP  OW  HW  HW  EP  OW  HW  HW  EP  OW  HW  HW  EP  OW  HW  
HW  EP  OW  HW  HW  EP  OW  HW  HW  EP  OW  HW  HW  EP  OW  HW  HW  EP  OW  HW  
HW  EP  OW  HW  HW  EP  OW  HW  HW  EP  OW  HW  HW  EP  OW  HW  HW  EP  OW  HW  
HW  EP  OW  HW  HW  EP  OW  HW  HW  EP  OW  HW  HW  EP  OW  HW  HW  EP  OW  HW  
HW  EP  OW  HW  HW  EP  OW  HW  HW  EP  OW  HW  HW  EP  OW  HW  HW  EP  OW  HW  
HW  EP  OW  HW  HW  EP  OW  HW  HW  EP  OW  HW  HW  EP  OW  HW  HW  EP  OW  HW  
HW  EP  OW  HW  HW  EP  OW  HW  HW  EP  OW  HW  HW  EP  OW  HW  HW  EP  OW  HW  
HW  EP  OW  HW  HW  EP  OW  HW  HW  EP  OW  HW  HW  EP  OW  HW  HW  EP  OW  HW  
HW  EP  OW  HW  HW  EP  OW  HW  HW  EP  OW  HW  HW  EP  OW  HW  HW  EP  OW  HW  
HW  EP  OW  HW  HW  EP  OW  HW  HW  EP  OW  HW  HW  EP  OW  HW  HW  EP  OW  HW  
HW  EP  OW  HW  HW  EP  OW  HW  HW  EP  OW  HW  HW  EP  OW  HW  HW  EP  OW  HW  
HW  EP  OW  HW  HW  EP  OW  HW  HW  EP  OW  HW  HW  EP  OW  HW  HW  EP  OW  HW  
HW  EP  OW  HW  HW  EP  OW  HW  HW  EP  OW  HW  HW  EP  OW  HW  HW  EP  OW  HW  
HW  EP  OW  HW  HW  EP  OW  HW  HW  EP  OW  HW  HW  EP  OW  HW  HW  EP  OW  HW  
HW  EP  OW  HW  HW  EP  OW  HW  HW  EP  OW  HW  HW  EP  OW  HW  HW  EP  OW  HW  
HW  EP  OW  HW  HW  EP  OW  HW  HW  EP  OW  HW  HW  EP  OW  HW  HW  EP  OW  HW  
HW  EP  OW  HW  HW  EP  OW  HW  HW  EP  OW  HW  HW  EP  OW  HW  HW  EP  OW  HW  
HW  EP  OW  HW  HW  EP  OW  HW  HW  EP  OW  HW  HW  EP  OW  HW  HW  EP  OW  HW  
HW  EP  OW  HW  HW  EP  OW  HW  HW  EP  OW  HW  HW  EP  OW  HW  HW  EP  OW  HW  
HW  EP  OW  HW  HW  EP  OW  HW  HW  EP  OW  HW  HW  EP  OW  HW  HW  EP  OW  HW  
HW  EP  OW  HW  HW  EP  OW  HW  HW  EP  OW  HW  HW  EP  OW  HW  HW  EP  OW  HW  
HW  EP  OW  HW  HW  EP  OW  HW  HW  EP  OW  HW  HW  EP  OW  HW  HW  EP  OW  HW  
HW  EP  OW  HW  HW  EP  OW  HW  HW  EP  OW  HW  HW  EP  OW  HW  HW  EP  OW  HW  
HW  EP  OW  HW  HW  EP  OW  HW  HW  EP  OW  HW  HW  EP  OW  HW  HW  EP  OW  HW  
HW  EP  OW  HW  HW  EP  OW  HW  HW  EP  OW  HW  HW  EP  OW  HW  HW  EP  OW  HW  
HW  EP  OW  HW  HW  EP  OW  HW  HW  EP  OW  HW  HW  EP  OW  HW  HW  EP  OW  HW  
HW  EP  OW  HW  HW  EP  OW  HW  HW  EP  OW  HW  HW  EP  OW  HW  HW  EP  OW  HW  
HW  EP  OW  HW  HW  EP  OW  HW  HW  EP  OW  HW  HW  EP  OW  HW  HW  EP  OW  HW  
HW  EP  OW  HW  HW  EP  OW  HW  HW  EP  OW  HW  HW  EP  OW  HW  HW  EP  OW  HW  
HW  EP  OW  HW  HW  EP  OW  HW  HW  EP  OW  HW  HW  EP  OW  HW  HW  EP  OW  HW  
HW  EP  OW  HW  HW  EP  OW  HW  HW  EP  OW  HW  HW  EP  OW  HW  HW  EP  OW  HW  
HW  EP  OW  HW  HW  EP  OW  HW  HW  EP  OW  HW  HW  EP  OW  HW  HW  EP  OW  HW  
HW  EP  OW  HW  HW  EP  OW  HW  HW  EP  OW  HW  HW  EP  OW  HW  HW  EP  OW  HW  
HW  EP  OW  HW  HW  EP  OW  HW  HW  EP  OW  HW  HW  EP  OW  HW  HW  EP  OW  HW  
HW  EP  OW  HW  HW  EP  OW  HW  HW  EP  OW  HW  HW  EP  OW  HW  HW  EP  OW  HW  
HW  EP  OW  HW  HW  EP  OW  HW  HW  EP  OW  HW  HW  EP  OW  HW  HW  EP  OW  HW  
HW  EP  OW  HW  HW  EP  OW  HW  HW  EP  OW  HW  HW  EP  OW  HW  HW  EP  OW  HW  
HW  EP  OW  HW  HW  EP  OW  HW  HW  EP  OW  HW  HW  EP  OW  HW  HW  EP  OW  HW  
HW  EP  OW  HW  HW  EP  OW  HW  HW  EP  OW  HW  HW  EP  OW  HW  HW  EP  OW  HW  
HW  EP  OW  HW  HW  EP  OW  HW  HW  EP  OW  HW  HW  EP  OW  HW  HW  EP  OW  HW  
HW  EP  OW  HW  HW  EP  OW  HW  HW  EP  OW  HW  HW  EP  OW  HW  HW  EP  OW  HW  
HW  EP  OW  HW  HW  EP  OW  HW  HW  EP  OW  HW  HW  EP  OW  HW  HW  EP  OW  HW  
HW  EP  OW  HW  HW  EP  OW  HW  HW  EP  OW  HW  HW  EP  OW  HW  HW  EP  OW  HW  
HW  EP  OW  HW  HW  EP  OW  HW  HW  EP  OW  HW  HW  EP  OW  HW  HW  EP  OW  HW  
HW  EP  OW  HW  HW  EP  OW  HW  HW  EP  OW  HW  HW  EP  OW  HW  HW  EP  OW  HW  
HW  EP  OW  HW  HW  EP  OW  HW  HW  EP  OW  HW  HW  EP  OW  HW  HW  EP  OW  HW  
HW  EP  OW  HW  HW  EP  OW  HW  HW  EP  OW  HW  HW  EP  OW  HW  HW  EP  OW  HW  
HW  EP  OW  HW  HW  EP  OW  HW  HW  EP  OW  HW  HW  EP  OW  HW  HW  EP  OW  HW  
HW  EP  OW  HW  HW  EP  OW  HW  HW  EP  OW  HW  HW  EP  OW  HW  HW  EP  OW  HW  
HW  EP  OW  HW  HW  EP  OW  HW  HW  EP  OW  HW  HW  EP  OW  HW  HW  EP  OW  HW  
HW  EP  OW  HW  HW  EP  OW  HW  HW  EP  OW  HW  HW  EP  OW  HW  HW  EP  OW  HW  
HW  EP  OW  HW  HW  EP  OW  HW  HW  EP  OW  HW  HW  EP  OW  HW  HW  EP  OW  HW  
HW  EP  OW  HW  HW  EP  OW  HW  HW  EP  OW  HW  HW  EP  OW  HW  HW  EP  OW  HW  
HW  EP  OW  HW  HW  EP  OW  HW  HW  EP  OW  HW  HW  EP  OW  HW  HW  EP  OW  HW  
HW  EP  OW  HW  HW  EP  OW  HW  HW  EP  OW  HW  HW  EP  OW  HW  HW  EP  OW  HW  
HW  EP  OW  HW  HW  EP  OW  HW  HW  EP  OW  HW  HW  EP  OW  HW  HW  EP  OW  HW  
HW  EP  OW  HW  HW  EP  OW  HW  HW  EP  OW  HW  HW  EP  OW  HW  HW  EP  OW  HW  
HW  EP  OW  HW  HW  EP  OW  HW  HW  EP  OW  HW  HW  EP  OW  HW  HW  EP  OW  HW  
HW  EP  OW  HW  HW  EP  OW  HW  HW  EP  OW  HW  HW  EP  OW  HW  HW  EP  OW  HW  
HW  EP  OW  HW  HW  EP  OW  HW  HW  EP  OW  HW  HW  EP  OW  HW  HW  EP  OW  HW  
HW  EP  OW  HW  HW  EP  OW  HW  HW  EP  OW  HW  HW  EP  OW  HW  HW  EP  OW  HW  
HW  EP  OW  HW  HW  EP  OW  HW  HW  EP  OW  HW  HW  EP  OW  HW  HW  EP  OW  HW  
HW  EP  OW  HW  HW  EP  OW  HW  HW  EP  OW  HW  HW  EP  OW  HW  HW  EP  OW  HW  
HW  EP  OW  HW  HW  EP  OW  HW  HW  EP  OW  HW  HW  EP  OW  HW  HW  EP  OW  HW  
HW  EP  OW  HW  HW  EP  OW  HW  HW  EP  OW  HW  HW  EP  OW  HW  HW  EP  OW  HW  
HW  EP  OW  HW  HW  EP  OW  HW  HW  EP  OW  HW  HW  EP  OW  HW  HW  EP  OW  HW  
HW  EP  OW  HW  HW  EP  OW  HW  HW  EP  OW  HW  HW  EP  OW  HW  HW  EP  OW  HW  
HW  EP  OW  HW  HW  EP  OW  HW  HW  EP  OW  HW  HW  EP  OW  HW  HW  EP  OW  HW  
HW  EP  OW  HW  HW  EP  OW  HW  HW  EP  OW  HW  HW  EP  OW  HW  HW  EP  OW  HW  
HW  EP  OW  HW  HW  EP  OW  HW  HW  EP  OW  HW  HW  EP  OW  HW  HW  EP  OW  HW  
HW  EP  OW  HW  HW  EP  OW  HW  HW  EP  OW  HW  HW  EP  OW  HW  HW  EP  OW  HW  
HW  EP  OW  HW  HW  EP  OW  HW  HW  EP  OW  HW  HW  EP  OW  HW  HW  EP  OW  HW  
HW  EP  OW  HW  HW  EP  OW  HW  HW  EP  OW  HW  HW  EP  OW  HW  HW  EP  OW  HW  
HW  EP  OW  HW  HW  EP  OW  HW  HW  EP  OW  HW  HW  EP  OW  HW  HW  EP  OW  HW  
HW  EP  OW  HW  HW  EP  OW  HW  HW  EP  OW  HW  HW  EP  OW  HW  HW  EP  OW  HW  
HW  EP  OW  HW  HW  EP  OW  HW  HW  EP  OW  HW  HW  EP  OW  HW  HW  EP  OW  HW  
HW  EP  OW  HW  HW  EP  OW  HW  HW  EP  OW  HW  HW  EP  OW  HW  HW  EP  OW  HW  
HW  EP  OW  HW  HW  EP  OW  HW  HW  EP  OW  HW  HW  EP  OW  HW  HW  EP  OW  HW  
HW  EP  OW  HW  HW  EP  OW  HW  HW  EP  OW  HW  HW  EP  OW  HW  HW  EP  OW  HW  
HW  EP  OW  HW  HW  EP  OW  HW  HW  EP  OW  HW  HW  EP  OW  HW  HW  EP  OW  HW  
HW  EP  OW  HW  HW  EP  OW  HW  HW  EP  OW  HW  HW  EP  OW  HW  HW  EP  OW  HW  
HW  EP  OW  HW  HW  EP  OW  HW  HW  EP  OW  HW  HW  EP  OW  HW  HW  EP  OW  HW  
HW  EP  OW  HW  HW  EP  OW  HW  HW  EP  OW  HW  HW  EP  OW  HW  HW  EP  OW  HW  
HW  EP  OW  HW  HW  EP  OW  HW  HW  EP  OW  HW  HW  EP  OW  HW  HW  EP  OW  HW  
HW  EP  OW  HW  HW  EP  OW  HW  HW  EP  OW  HW  HW  EP  OW  HW  HW  EP  OW  HW  
HW  EP  OW  HW  HW  EP  OW  HW  HW  EP  OW  HW  HW  EP  OW  HW  HW  EP  OW  HW  
HW  EP  OW  HW  HW  EP  OW  HW  HW  EP  OW  HW  HW  EP  OW  HW  HW  EP  OW  HW  
HW  EP  OW  HW  HW  EP  OW  HW  HW  EP  OW  HW  HW  EP  OW  HW  HW  EP  OW  HW  
HW  EP  OW  HW  HW  EP  OW  HW  HW  EP  OW  HW  HW  EP  OW  HW  HW  EP  OW  HW  
HW  EP  OW  HW  HW  EP  OW  HW  HW  EP  OW  HW  HW  EP  OW  HW  HW  EP  OW  HW  
HW  EP  OW  HW  HW  EP  OW  HW  HW  EP  OW  HW  HW  EP  OW  HW  HW  EP  OW  HW  
HW  EP  OW  HW  HW  EP  OW  HW  HW  EP  OW  HW  HW  EP  OW  HW  HW  EP  OW  HW  
HW  EP  OW  HW  HW  EP  OW  HW  HW  EP  OW  HW  HW  EP  OW  HW  HW  EP  OW  HW  
HW  EP  OW  HW  HW  EP  OW  HW  HW  EP  OW  HW  HW  EP  OW  HW  HW  EP  OW  HW  
HW  EP  OW  HW  HW  EP  OW  HW  HW  EP  OW  HW  HW  EP  OW  HW  HW  EP  OW  HW  
HW  EP  OW  HW  HW  EP  OW  HW  HW  EP  OW  HW  HW  EP  OW  HW  HW  EP  OW  HW  
HW  EP  OW  HW  HW  EP  OW  HW  HW  EP  OW  HW  HW  EP  OW  HW  HW  EP  OW  HW  
HW  EP  OW  HW  HW  EP  OW  HW  HW  EP  OW  HW  HW  EP  OW  HW  HW  EP  OW  HW  
HW  EP  OW  HW  HW  EP  OW  HW  HW  EP  OW  HW  HW  EP  OW  HW  HW  EP  OW  HW  
HW  EP  OW  HW  HW  EP  OW  HW  HW  EP  OW  HW  HW  EP  OW  HW  HW  EP  OW  HW  
HW  EP  OW  HW  HW  EP  OW  HW  HW  EP  OW  HW  HW  EP  OW  HW  HW  EP  OW  HW  
HW  EP  OW  HW  HW  EP  OW  HW  HW  EP  OW  HW  HW  EP  OW  HW  HW  EP  OW  HW  
HW  EP  OW  HW  HW  EP  OW  HW  HW  EP  OW  HW  HW  EP  OW  HW  HW  EP  OW  HW  
HW  EP  OW  HW  HW  EP  OW  HW  HW  EP  OW  HW  HW  EP  OW  HW  HW  EP  OW  HW  
HW  EP  OW  HW  HW  EP  OW  HW  HW  EP  OW  HW  HW  EP  OW  HW  HW  EP  OW  HW  
HW  EP  OW  HW  HW  EP  OW  HW  HW  EP  OW  HW  HW  EP  OW  HW  HW  EP  OW  HW  
HW  EP  OW  HW  HW  EP  OW  HW  HW  EP  OW  HW  HW  EP  OW  HW  HW  EP  OW  HW  
HW  EP  OW  HW  HW  EP  OW  HW  HW  EP  OW  HW  HW  EP  OW  HW  HW  EP  OW  HW  
HW  EP  OW  HW  HW  EP  OW  HW  HW  EP  OW  HW  HW  EP  OW  HW  HW  EP  OW  HW  
HW  EP  OW  HW  HW  EP  OW  HW  HW  EP  OW  HW  HW  EP  OW  HW  HW  EP  OW  HW  
HW  EP  OW  HW  HW  EP  OW  HW  HW  EP  OW  HW  HW  EP  OW  HW  HW  EP  OW  HW  
HW  EP  OW  HW  HW  EP  OW  HW  HW  EP  OW  HW  HW  EP  OW  HW  HW  EP  OW  HW  
HW  EP  OW  HW  HW  EP  OW  HW  HW  EP  OW  HW  HW  EP  OW  HW  HW  EP  OW  HW  
HW  EP  OW  HW  HW  EP  OW  HW  HW  EP  OW  HW  HW  EP  OW  HW  HW  EP  OW  HW  
HW  EP  OW  HW  HW  EP  OW  HW  HW  EP  OW  HW  HW  EP  OW  HW  HW  EP  OW  HW  
HW  EP  OW  HW  HW  EP  OW  HW  HW  EP  OW  HW  HW  EP  OW  HW  HW  EP  OW  HW  
HW  EP  OW  HW  HW  EP  OW  HW  HW  EP  OW  HW  HW  EP  OW  HW  HW  EP  OW  HW  
HW  EP  OW  HW  HW  EP  OW  HW  HW  EP  OW  HW  HW  EP  OW  HW  HW  EP  OW  HW  
HW  EP  OW  HW  HW  EP  OW  HW  HW  EP  OW  HW  HW  EP  OW  HW  HW  EP  OW  HW  
HW  EP  OW  HW  HW  EP  OW  HW  HW  EP  OW  HW  HW  EP  OW  HW  HW  EP  OW  HW  
HW  EP  OW  HW  HW  EP  OW  HW  HW  EP  OW  HW  HW  EP  OW  HW  HW  EP  OW  HW  
HW  EP  OW  HW  HW  EP  OW  HW  HW  EP  OW  HW  HW  EP  OW  HW  HW  EP  OW  HW  
HW  EP  OW  HW  HW  EP  OW  HW  HW  EP  OW  HW  HW  EP  OW  HW  HW  EP  OW  HW  
HW  EP  OW  HW  HW  EP  OW  HW  HW  EP  OW  HW  HW  EP  OW  HW  HW  EP  OW  HW  
HW  EP  OW  HW  HW  EP  OW  HW  HW  EP  OW  HW  HW  EP  OW  HW  HW  EP  OW  HW  
HW  EP  OW  HW  HW  EP  OW  HW  HW  EP  OW  HW  HW  EP  OW  HW  HW  EP  OW  HW  
HW  EP  OW  HW  HW  EP  OW  HW  HW  EP  OW  HW  HW  EP  OW  HW  HW  EP  OW  HW  
HW  EP  OW  HW  HW  EP  OW  HW  HW  EP  OW  HW  HW  EP  OW  HW  HW  EP  OW  HW  
HW  EP  OW  HW  HW  EP  OW  HW  HW  EP  OW  HW  HW  EP  OW  HW  HW  EP  OW  HW  
HW  EP  OW  HW  HW  EP  OW  HW  HW  EP  OW  HW  HW  EP  OW  HW  HW  EP  OW  HW  
HW  EP  OW  HW  HW  EP  OW  HW  HW  EP  OW  HW  HW  EP  OW  HW  HW  EP  OW  HW  
HW  EP  OW  HW  HW  EP  OW  HW  HW  EP  OW  HW  HW  EP  OW  HW  HW  EP  OW  HW  
HW  EP  OW  HW  HW  EP  OW  HW  HW  EP  OW  HW  HW  EP  OW  HW  HW  EP  OW  HW  
HW  EP  OW  HW  HW  EP  OW  HW  HW  EP  OW  HW  HW  EP  OW  HW  HW  EP  OW  HW  
HW  EP  OW  HW  HW  EP  OW  HW  HW  EP  OW  HW  HW  EP  OW  HW  HW  EP  OW  HW  
HW  EP  OW  HW  HW  EP  OW  HW  HW  EP  OW  HW  HW  EP  OW  HW  HW  EP  OW  HW  
HW  EP  OW  HW  HW  EP  OW  HW  HW  EP  OW  HW  HW  EP  OW  HW  HW  EP  OW  HW  
HW  EP  OW  HW  HW  EP  OW  HW  HW  EP  OW  HW  HW  EP  OW  HW  HW  EP  OW  HW  
HW  EP  OW  HW  HW  EP  OW  HW  HW  EP  OW  HW  HW  EP  OW  HW  HW  EP  OW  HW  
HW  EP  OW  HW  HW  EP  OW  HW  HW  EP  OW  HW  HW  EP  OW  HW  HW  EP  OW  HW  
HW  EP  OW  HW  HW  EP  OW  HW  HW  EP  OW  HW  HW  EP  OW  HW  HW  EP  OW  HW  
HW  EP  OW  HW  HW  EP  OW  HW  HW  EP  OW  HW  HW  EP  OW  HW  HW  EP  OW  HW  
HW  EP  OW  HW  HW  EP  OW  HW  HW  EP  OW  HW  HW  EP  OW  HW  HW  EP  OW  HW  
HW  EP  OW  HW  HW  EP  OW  HW  HW  EP  OW  HW  HW  EP  OW  HW  HW  EP  OW  HW  
HW  EP  OW  HW  HW  EP  OW  HW  HW  EP  OW  HW  HW  EP  OW  HW  HW  EP  OW  HW  
HW  EP  OW  HW  HW  EP  OW  HW  HW  EP  OW  HW  HW  EP  OW  HW  HW  EP  OW  HW  
HW  EP  OW  HW  HW  EP  OW  HW  HW  EP  OW  HW  HW  EP  OW  HW  HW  EP  OW  HW  
HW  EP  OW  HW  HW  EP  OW  HW  HW  EP  OW  HW  HW  EP  OW  HW  HW  EP  OW  HW  
HW  EP  OW  HW  HW  EP  OW  HW  HW  EP  OW  HW  HW  EP  OW  HW  HW  EP  OW  HW  
HW  EP  OW  HW  HW  EP  OW  HW  HW  EP  OW  HW  HW  EP  OW  HW  HW  EP  OW  HW  
HW  EP  OW  HW  HW  EP  OW  HW  HW  EP  OW  HW  HW  EP  OW  HW  HW  EP  OW  HW  
HW  EP  OW  HW  HW  EP  OW  HW  HW  EP  OW  HW  HW  EP  OW  HW  HW  EP  OW  HW  
HW  EP  OW  HW  HW  EP  OW  HW  HW  EP  OW  HW  HW  EP  OW  HW  HW  EP  OW  HW  
HW  EP  OW  HW  HW  EP  OW  HW  HW  EP  OW  HW  HW  EP  OW  HW  HW  EP  OW  HW  
HW  EP  OW  HW  HW  EP  OW  HW  HW  EP  OW  HW  HW  EP  OW  HW  HW  EP  OW  HW  
HW  EP  OW  HW  HW  EP  OW  HW  HW  EP  OW  HW  HW  EP  OW  HW  HW  EP  OW  HW  
HW  EP  OW  HW  HW  EP  OW  HW  HW  EP  OW  HW  HW  EP  OW  HW  HW  EP  OW  HW  
HW  EP  OW  HW  HW  EP  OW  HW  HW  EP  OW  HW  HW  EP  OW  HW  HW  EP  OW  HW  
HW  EP  OW  HW  HW  EP  OW  HW  HW  EP  OW  HW  HW  EP  OW  HW  HW  EP  OW  HW  
HW  EP  OW  HW  HW  EP  OW  HW  HW  EP  OW  HW  HW  EP  OW  HW  HW  EP  OW  HW  
HW  EP  OW  HW  HW  EP  OW  HW  HW  EP  OW  HW  HW  EP  OW  HW  HW  EP  OW  HW  
HW  EP  OW  HW  HW  EP  OW  HW  HW  EP  OW  HW  HW  EP  OW  HW  HW  EP  OW  HW  
HW  EP  OW  HW  HW  EP  OW  HW  HW  EP  OW  HW  HW  EP  OW  HW  HW  EP  OW  HW  
HW  EP  OW  HW  HW  EP  OW  HW  HW  EP  OW  HW  HW  EP  OW  HW  HW  EP  OW  HW  
HW  EP  OW  HW  HW  EP  OW  HW  HW  EP  OW  HW  HW  EP  OW  HW  HW  EP  OW  HW  
HW  EP  OW  HW  HW  EP  OW  HW  HW  EP  OW  HW  HW  EP  OW  HW  HW  EP  OW  HW  
HW  EP  OW  HW  HW  EP  OW  HW  HW  EP  OW  HW  HW  EP  OW  HW  HW  EP  OW  HW  
HW  EP  OW  HW  HW  EP  OW  HW  HW  EP  OW  HW  HW  EP  OW  HW  HW  EP  OW  HW  
HW  EP  OW  HW  HW  EP  OW  HW  HW  EP  OW  HW  HW  EP  OW  HW  HW  EP  OW  HW  
HW  EP  OW  HW  HW  EP  OW  HW  HW  EP  OW  HW  HW  EP  OW  HW  HW  EP  OW  HW  
HW  EP  OW  HW  HW  EP  OW  HW  HW  EP  OW  HW  HW  EP  OW  HW  HW  EP  OW  HW  
HW  EP  OW  HW  HW  EP  OW  HW  HW  EP  OW  HW  HW  EP  OW  HW  HW  EP  OW  HW  
HW  EP  OW  HW  HW  EP  OW  HW  HW  EP  OW  HW  HW  EP  OW  HW  HW  EP  OW  HW  
HW  EP  OW  HW  HW  EP  OW  HW  HW  EP  OW  HW  HW  EP  OW  HW  HW  EP  OW  HW  
HW  EP  OW  HW  HW  EP  OW  HW  HW  EP  OW  HW  HW  EP  OW  HW  HW  EP  OW  HW  
HW  EP  OW  HW  HW  EP  OW  HW  HW  EP  OW  HW  HW  EP  OW  HW  HW  EP  OW  HW  
HW  EP  OW  HW  HW  EP  OW  HW  HW  EP  OW  HW  HW  EP  OW  HW  HW  EP  OW  HW  
HW  EP  OW  HW  HW  EP  OW  HW  HW  EP  OW  HW  HW  EP  OW  HW  HW  EP  OW  HW  
HW  EP  OW  HW  HW  EP  OW  HW  HW  EP  OW  HW  HW  EP  OW  HW  HW  EP  OW  HW  
HW  EP  OW  HW  HW  EP  OW  HW  HW  EP  OW  HW  HW  EP  OW  HW  HW  EP  OW  HW  
HW  EP  OW  HW  HW  EP  OW  HW  HW  EP  OW  HW  HW  EP  OW  HW  HW  EP  OW  HW  
HW  EP  OW  HW  HW  EP  OW  HW  HW  EP  OW  HW  HW  EP  OW  HW  HW  EP  OW  HW  
HW  EP  OW  HW  HW  EP  OW  HW  HW  EP  OW  HW  HW  EP  OW  HW  HW  EP  OW  HW  
HW  EP  OW  HW  HW  EP  OW  HW  HW  EP  OW  HW  HW  EP  OW  HW  HW  EP  OW  HW  
HW  EP  OW  HW  HW  EP  OW  HW  HW  EP  OW  HW  HW  EP  OW  HW  HW  EP  OW  HW  
HW  EP  OW  HW  HW  EP  OW  HW  HW  EP  OW  HW  HW  EP  OW  HW  HW  EP  OW  HW  
HW  EP  OW  HW  HW  EP  OW  HW  HW  EP  OW  HW  HW  EP  OW  HW  HW  EP  OW  HW  
HW  EP  OW  HW  HW  EP  OW  HW  HW  EP  OW  HW  HW  EP  OW  HW  HW  EP  OW  HW  
HW  EP  OW  HW  HW  EP  OW  HW  HW  EP  OW  HW  HW  EP  OW  HW  HW  EP  OW  HW  
HW  EP  OW  HW  HW  EP  OW  HW  HW  EP  OW  HW  HW  EP  OW  HW  HW  EP  OW  HW  
HW  EP  OW  HW  HW  EP  OW  HW  HW  EP  OW  HW  HW  EP  OW  HW  HW  EP  OW  HW  
HW  EP  OW  HW  HW  EP  OW  HW  HW  EP  OW  HW  HW  EP  OW  HW  HW  EP  OW  HW  
HW  EP  OW  HW  HW  EP  OW  HW  HW  EP  OW  HW  HW  EP  OW  HW  HW  EP  OW  HW  
HW  EP  OW  HW  HW  EP  OW  HW  HW  EP  OW  HW  HW  EP  OW  HW  HW  EP  OW  HW  
HW  EP  OW  HW  HW  EP  OW  HW  HW  EP  OW  HW  HW  EP  OW  HW  HW  EP  OW  HW  
HW  EP  OW  HW  HW  EP  OW  HW  HW  EP  OW  HW  HW  EP  OW  HW  HW  EP  OW  HW  
HW  EP  OW  HW  HW  EP  OW  HW  HW  EP  OW  HW  HW  EP  OW  HW  HW  EP  OW  HW  
HW  EP  OW  HW  HW  EP  OW  HW  HW  EP  OW  HW  HW  EP  OW  HW  HW  EP  OW  HW  
HW  EP  OW  HW  HW  EP  OW  HW  HW  EP  OW  HW  HW  EP  OW  HW  HW  EP  OW  HW  
HW  EP  OW  HW  HW  EP  OW  HW  HW  EP  OW  HW  HW  EP  OW  HW  HW  EP  OW  HW  
HW  EP  OW  HW  HW  EP  OW  HW  HW  EP  OW  HW  HW  EP  OW  HW  HW  EP  OW  HW  
HW  EP  OW  HW  HW  EP  OW  HW  HW  EP  OW  HW  HW  EP  OW  HW  HW  EP  OW  HW  
HW  EP  OW  HW  HW  EP  OW  HW  HW  EP  OW  HW  HW  EP  OW  HW  HW  EP  OW  HW  
HW  EP  OW  HW  HW  EP  OW  HW  HW  EP  OW  HW  HW  EP  OW  HW  HW  EP  OW  HW  
HW  EP  OW  HW  HW  EP  OW  HW  HW  EP  OW  HW  HW  EP  OW  HW  HW  EP  OW  HW  
HW  EP  OW  HW  HW  EP  OW  HW  HW  EP  OW  HW  HW  EP  OW  HW  HW  EP  OW  HW  
HW  EP  OW  HW  HW  EP  OW  HW  HW  EP  OW  HW  HW  EP  OW  HW  HW  EP  OW  HW  
HW  EP  OW  HW  HW  EP  OW  HW  HW  EP  OW  HW  HW  EP  OW  HW  HW  EP  OW  HW  
HW  EP  OW  HW  HW  EP  OW  HW  HW  EP  OW  HW  HW  EP  OW  HW  HW  EP  OW  HW  
HW  EP  OW  HW  HW  EP  OW  HW  HW  EP  OW  HW  HW  EP  OW  HW  HW  EP  OW  HW  
HW  EP  OW  HW  HW  EP  OW  HW  HW  EP  OW  HW  HW  EP  OW  HW  HW  EP  OW  HW  
HW  EP  OW  HW  HW  EP  OW  HW  HW  EP  OW  HW  HW  EP  OW  HW  HW  EP  OW  HW  
HW  EP  OW  HW  HW  EP  OW  HW  HW  EP  OW  HW  HW  EP  OW  HW  HW  EP  OW  HW  
HW  EP  OW  HW  HW  EP  OW  HW  HW  EP  OW  HW  HW  EP  OW  HW  HW  EP  OW  HW  
HW  EP  OW  HW  HW  EP  OW  HW  HW  EP  OW  HW  HW  EP  OW  HW  HW  EP  OW  HW  
HW  EP  OW  HW  HW  EP  OW  HW  HW  EP  OW  HW  HW  EP  OW  HW  HW  EP  OW  HW  
HW  EP  OW  HW  HW  EP  OW  HW  HW  EP  OW  HW  HW  EP  OW  HW  HW  EP  OW  HW  
HW  EP  OW  HW  HW  EP  OW  HW  HW  EP  OW  HW  HW  EP  OW  HW  HW  EP  OW  HW  
HW  EP  OW  HW  HW  EP  OW  HW  HW  EP  OW  HW  HW  EP  OW  HW  HW  EP  OW  HW  
HW  EP  OW  HW  HW  EP  OW  HW  HW  EP  OW  HW  HW  EP  OW  HW  HW  EP  OW  HW  
HW  EP  OW  HW  HW  EP  OW  HW  HW  EP  OW  HW  HW  EP  OW  HW  HW  EP  OW  HW  
HW  EP  OW  HW  HW  EP  OW  HW  HW  EP  OW  HW  HW  EP  OW  HW  HW  EP  OW  HW  
HW  EP  OW  HW  HW  EP  OW  HW  HW  EP  OW  HW  HW  EP  OW  HW  HW  EP  OW  HW  
HW  EP  OW  HW  HW  EP  OW  HW  HW  EP  OW  HW  HW  EP  OW  HW  HW  EP  OW  HW  
HW  EP  OW  HW  HW  EP  OW  HW  HW  EP  OW  HW  HW  EP  OW  HW  HW  EP  OW  HW  
HW  EP  OW  HW  HW  EP  OW  HW  HW  EP  OW  HW  HW  EP  OW  HW  HW  EP  OW  HW  
HW  EP  OW  HW  HW  EP  OW  HW  HW  EP  OW  HW  HW  EP  OW  HW  HW  EP  OW  HW  
HW  EP  OW  HW  HW  EP  OW  HW  HW  EP  OW  HW  HW  EP  OW  HW  HW  EP  OW  HW  
HW  EP  OW  HW  HW  EP  OW  HW  HW  EP  OW  HW  HW  EP  OW  HW  HW  EP  OW  HW  
HW  EP  OW  HW  HW  EP  OW  HW  HW  EP  OW  HW  HW  EP  OW  HW  HW  EP  OW  HW  
HW  EP  OW  HW  HW  EP  OW  HW  HW  EP  OW  HW  HW  EP  OW  HW  HW  EP  OW  HW  
HW  EP  OW  HW  HW  EP  OW  HW  HW  EP  OW  HW  HW  EP  OW  HW  HW  EP  OW  HW  
HW  EP  OW  HW  HW  EP  OW  HW  HW  EP  OW  HW  HW  EP  OW  HW  HW  EP  OW  HW  
HW  EP  OW  HW  HW  EP  OW  HW  HW  EP  OW  HW  HW  EP  OW  HW  HW  EP  OW  HW  
HW  EP  OW  HW  HW  EP  OW  HW  HW  EP  OW  HW  HW  EP  OW  HW  HW  EP  OW  HW  
HW  EP  OW  HW  HW  EP  OW  HW  HW  EP  OW  HW  HW  EP  OW  HW  HW  EP  OW  HW  
HW  EP  OW  HW  HW  EP  OW  HW  HW  EP  OW  HW  HW  EP  OW  HW  HW  EP  OW  HW  
HW  EP  OW  HW  HW  EP  OW  HW  HW  EP  OW  HW  HW  EP  OW  HW  HW  EP  OW  HW  
HW  EP  OW  HW  HW  EP  OW  HW  HW  EP  OW  HW  HW  EP  OW  HW  HW  EP  OW  HW  
HW  EP  OW  HW  HW  EP  OW  HW  HW  EP  OW  HW  HW  EP  OW  HW  HW  EP  OW  HW  
HW  EP  OW  HW  HW  EP  OW  HW  HW  EP  OW  HW  HW  EP  OW  HW  HW  EP  OW  HW  
HW  EP  OW  HW  HW  EP  OW  HW  HW  EP  OW  HW  HW  EP  OW  HW  HW  EP  OW  HW  
HW  EP  OW  HW  HW  EP  OW  HW  HW  EP  OW  HW  HW  EP  OW  HW  HW  EP  OW  HW  
HW  EP  OW  HW  HW  EP  OW  HW  HW  EP  OW  HW  HW  EP  OW  HW  HW  EP  OW  HW  
HW  EP  OW  HW  HW  EP  OW  HW  HW  EP  OW  HW  HW  EP  OW  HW  HW  EP  OW  HW  
HW  EP  OW  HW  HW  EP  OW  HW  HW  EP  OW  HW  HW  EP  OW  HW  HW  EP  OW  HW  
HW  EP  OW  HW  HW  EP  OW  HW  HW  EP  OW  HW  HW  EP  OW  HW  HW  EP  OW  HW  
HW  EP  OW  HW  HW  EP  OW  HW  HW  EP  OW  HW  HW  EP  OW  HW  HW  EP  OW  HW  
HW  EP  OW  HW  HW  EP  OW  HW  HW  EP  OW  HW  HW  EP  OW  HW  HW  EP  OW  HW  
HW  EP  OW  HW  HW  EP  OW  HW  HW  EP  OW  HW  HW  EP  OW  HW  HW  EP  OW  HW  
HW  EP  OW  HW  HW  EP  OW  HW  HW  EP  OW  HW  HW  EP  OW  HW  HW  EP  OW  HW  
HW  EP  OW  HW  HW  EP  OW  HW  HW  EP  OW  HW  HW  EP  OW  HW  HW  EP  OW  HW  
HW  EP  OW  HW  HW  EP  OW  HW  HW  EP  OW  HW  HW  EP  OW  HW  HW  EP  OW  HW  
HW  EP  OW  HW  HW  EP  OW  HW  HW  EP  OW  HW  HW  EP  OW  HW  HW  EP  OW  HW  
HW  EP  OW  HW  HW  EP  OW  HW  HW  EP  OW  HW  HW  EP  OW  HW  HW  EP  OW  HW  
HW  EP  OW  HW  HW  EP  OW  HW  HW  EP  OW  HW  HW  EP  OW  HW  HW  EP  OW  HW  
HW  EP  OW  HW  HW  EP  OW  HW  HW  EP  OW  HW  HW  EP  OW  HW  HW  EP  OW  HW  
HW  EP  OW  HW  HW  EP  OW  HW  HW  EP  OW  HW  HW  EP  OW  HW  HW  EP  OW  HW  
HW  EP  OW  HW  HW  EP  OW  HW  HW  EP  OW  HW  HW  EP  OW  HW  HW  EP  OW  HW  
HW  EP  OW  HW  HW  EP  OW  HW  HW  EP  OW  HW  HW  EP  OW  HW  HW  EP  OW  HW  
HW  EP  OW  HW  HW  EP  OW  HW  HW  EP  OW  HW  HW  EP  OW  HW  HW  EP  OW  HW  
HW  EP  OW  HW  HW  EP  OW  HW  HW  EP  OW  HW  HW  EP  OW  HW  HW  EP  OW  HW  
HW  EP  OW  HW  HW  EP  OW  HW  HW  EP  OW  HW  HW  EP  OW  HW  HW  EP  OW  HW  
HW  EP  OW  HW  HW  EP  OW  HW  HW  EP  OW  HW  HW  EP  OW  HW  HW  EP  OW  HW  
HW  EP  OW  HW  HW  EP  OW  HW  HW  EP  OW  HW  HW  EP  OW  HW  HW  EP  OW  HW  
HW  EP  OW  HW  HW  EP  OW  HW  HW  EP  OW  HW  HW  EP  OW  HW  HW  EP  OW  HW  
HW  EP  OW  HW  HW  EP  OW  HW  HW  EP  OW  HW  HW  EP  OW  HW  HW  EP  OW  HW  
HW  EP  OW  HW  HW  EP  OW  HW  HW  EP  OW  HW  HW  EP  OW  HW  HW  EP  OW  HW  
HW  EP  OW  HW  HW  EP  OW  HW  HW  EP  OW  HW  HW  EP  OW  HW  HW  EP  OW  HW  
HW  EP  OW  HW  HW  EP  OW  HW  HW  EP  OW  HW  HW  EP  OW  HW  HW  EP  OW  HW  
HW  EP  OW  HW  HW  EP  OW  HW  HW  EP  OW  HW  HW  EP  OW  HW  HW  EP  OW  HW  
HW  EP  OW  HW  HW  EP  OW  HW  HW  EP  OW  HW  HW  EP  OW  HW  HW  EP  OW  HW  
HW  EP  OW  HW  HW  EP  OW  HW  HW  EP  OW  HW  HW  EP  OW  HW  HW  EP  OW  HW  
HW  EP  OW  HW  HW  EP  OW  HW  HW  EP  OW  HW  HW  EP  OW  HW  HW  EP  OW  HW  
HW  EP  OW  HW  HW  EP  OW  HW  HW  EP  OW  HW  HW  EP  OW  HW  HW  EP  OW  HW  
HW  EP  OW  HW  HW  EP  OW  HW  HW  EP  OW  HW  HW  EP  OW  HW  HW  EP  OW  HW  
HW  EP  OW  HW  HW  EP  OW  HW  HW  EP  OW  HW  HW  EP  OW  HW  HW  EP  OW  HW  
HW  EP  OW  HW  HW  EP  OW  HW  HW  EP  OW  HW  HW  EP  OW  HW  HW  EP  OW  HW  
HW  EP  OW  HW  HW  EP  OW  HW  HW  EP  OW  HW  HW  EP  OW  HW  HW  EP  OW  HW  
HW  EP  OW  HW  HW  EP  OW  HW  HW  EP  OW  HW  HW  EP  OW  HW  HW  EP  OW  HW  
HW  EP  OW  HW  HW  EP  OW  HW  HW  EP  OW  HW  HW  EP  OW  HW  HW  EP  OW  HW  
HW  EP  OW  HW  HW  EP  OW  HW  HW  EP  OW  HW  HW  EP  OW  HW  HW  EP  OW  HW  
HW  EP  OW  HW  HW  EP  OW  HW  HW  EP  OW  HW  HW  EP  OW  HW  HW  EP  OW  HW  
HW  EP  OW  HW  HW  EP  OW  HW  HW  EP  OW  HW  HW  EP  OW  HW  HW  EP  OW  HW  
HW  EP  OW  HW  HW  EP  OW  HW  HW  EP  OW  HW  HW  EP  OW  HW  HW  EP  OW  HW  
HW  EP  OW  HW  HW  EP  OW  HW  HW  EP  OW  HW  HW  EP  OW  HW  HW  EP  OW  HW  
HW  EP  OW  HW  HW  EP  OW  HW  HW  EP  OW  HW  HW  EP  OW  HW  HW  EP  OW  HW  
HW  EP  OW  HW  HW  EP  OW  HW  HW  EP  OW  HW  HW  EP  OW  HW  HW  EP  OW  HW  
HW  EP  OW  HW  HW  EP  OW  HW  HW  EP  OW  HW  HW  EP  OW  HW  HW  EP  OW  HW  
HW  EP  
%FLAG TREE_CHAIN_CLASSIFICATION                                                 
%FORMAT(20a4)                                                                   
M   M   M   M   M   M   M   M   M   M   BLA BLA BLA BLA BLA BLA BLA BLA BLA BLA 
BLA BLA BLA BLA BLA BLA BLA BLA BLA BLA BLA BLA BLA BLA BLA BLA BLA BLA BLA BLA 
BLA BLA BLA BLA BLA BLA BLA BLA BLA BLA BLA BLA BLA BLA BLA BLA BLA BLA BLA BLA 
BLA BLA BLA BLA BLA BLA BLA BLA BLA BLA BLA BLA BLA BLA BLA BLA BLA BLA BLA BLA 
BLA BLA BLA BLA BLA BLA BLA BLA BLA BLA BLA BLA BLA BLA BLA BLA BLA BLA BLA BLA 
BLA BLA BLA BLA BLA BLA BLA BLA BLA BLA BLA BLA BLA BLA BLA BLA BLA BLA BLA BLA 
BLA BLA BLA BLA BLA BLA BLA BLA BLA BLA BLA BLA BLA BLA BLA BLA BLA BLA BLA BLA 
BLA BLA BLA BLA BLA BLA BLA BLA BLA BLA BLA BLA BLA BLA BLA BLA BLA BLA BLA BLA 
BLA BLA BLA BLA BLA BLA BLA BLA BLA BLA BLA BLA BLA BLA BLA BLA BLA BLA BLA BLA 
BLA BLA BLA BLA BLA BLA BLA BLA BLA BLA BLA BLA BLA BLA BLA BLA BLA BLA BLA BLA 
BLA BLA BLA BLA BLA BLA BLA BLA BLA BLA BLA BLA BLA BLA BLA BLA BLA BLA BLA BLA 
BLA BLA BLA BLA BLA BLA BLA BLA BLA BLA BLA BLA BLA BLA BLA BLA BLA BLA BLA BLA 
BLA BLA BLA BLA BLA BLA BLA BLA BLA BLA BLA BLA BLA BLA BLA BLA BLA BLA BLA BLA 
BLA BLA BLA BLA BLA BLA BLA BLA BLA BLA BLA BLA BLA BLA BLA BLA BLA BLA BLA BLA 
BLA BLA BLA BLA BLA BLA BLA BLA BLA BLA BLA BLA BLA BLA BLA BLA BLA BLA BLA BLA 
BLA BLA BLA BLA BLA BLA BLA BLA BLA BLA BLA BLA BLA BLA BLA BLA BLA BLA BLA BLA 
BLA BLA BLA BLA BLA BLA BLA BLA BLA BLA BLA BLA BLA BLA BLA BLA BLA BLA BLA BLA 
BLA BLA BLA BLA BLA BLA BLA BLA BLA BLA BLA BLA BLA BLA BLA BLA BLA BLA BLA BLA 
BLA BLA BLA BLA BLA BLA BLA BLA BLA BLA BLA BLA BLA BLA BLA BLA BLA BLA BLA BLA 
BLA BLA BLA BLA BLA BLA BLA BLA BLA BLA BLA BLA BLA BLA BLA BLA BLA BLA BLA BLA 
BLA BLA BLA BLA BLA BLA BLA BLA BLA BLA BLA BLA BLA BLA BLA BLA BLA BLA BLA BLA 
BLA BLA BLA BLA BLA BLA BLA BLA BLA BLA BLA BLA BLA BLA BLA BLA BLA BLA BLA BLA 
BLA BLA BLA BLA BLA BLA BLA BLA BLA BLA BLA BLA BLA BLA BLA BLA BLA BLA BLA BLA 
BLA BLA BLA BLA BLA BLA BLA BLA BLA BLA BLA BLA BLA BLA BLA BLA BLA BLA BLA BLA 
BLA BLA BLA BLA BLA BLA BLA BLA BLA BLA BLA BLA BLA BLA BLA BLA BLA BLA BLA BLA 
BLA BLA BLA BLA BLA BLA BLA BLA BLA BLA BLA BLA BLA BLA BLA BLA BLA BLA BLA BLA 
BLA BLA BLA BLA BLA BLA BLA BLA BLA BLA BLA BLA BLA BLA BLA BLA BLA BLA BLA BLA 
BLA BLA BLA BLA BLA BLA BLA BLA BLA BLA BLA BLA BLA BLA BLA BLA BLA BLA BLA BLA 
BLA BLA BLA BLA BLA BLA BLA BLA BLA BLA BLA BLA BLA BLA BLA BLA BLA BLA BLA BLA 
BLA BLA BLA BLA BLA BLA BLA BLA BLA BLA BLA BLA BLA BLA BLA BLA BLA BLA BLA BLA 
BLA BLA BLA BLA BLA BLA BLA BLA BLA BLA BLA BLA BLA BLA BLA BLA BLA BLA BLA BLA 
BLA BLA BLA BLA BLA BLA BLA BLA BLA BLA BLA BLA BLA BLA BLA BLA BLA BLA BLA BLA 
BLA BLA BLA BLA BLA BLA BLA BLA BLA BLA BLA BLA BLA BLA BLA BLA BLA BLA BLA BLA 
BLA BLA BLA BLA BLA BLA BLA BLA BLA BLA BLA BLA BLA BLA BLA BLA BLA BLA BLA BLA 
BLA BLA BLA BLA BLA BLA BLA BLA BLA BLA BLA BLA BLA BLA BLA BLA BLA BLA BLA BLA 
BLA BLA BLA BLA BLA BLA BLA BLA BLA BLA BLA BLA BLA BLA BLA BLA BLA BLA BLA BLA 
BLA BLA BLA BLA BLA BLA BLA BLA BLA BLA BLA BLA BLA BLA BLA BLA BLA BLA BLA BLA 
BLA BLA BLA BLA BLA BLA BLA BLA BLA BLA BLA BLA BLA BLA BLA BLA BLA BLA BLA BLA 
BLA BLA BLA BLA BLA BLA BLA BLA BLA BLA BLA BLA BLA BLA BLA BLA BLA BLA BLA BLA 
BLA BLA BLA BLA BLA BLA BLA BLA BLA BLA BLA BLA BLA BLA BLA BLA BLA BLA BLA BLA 
BLA BLA BLA BLA BLA BLA BLA BLA BLA BLA BLA BLA BLA BLA BLA BLA BLA BLA BLA BLA 
BLA BLA BLA BLA BLA BLA BLA BLA BLA BLA BLA BLA BLA BLA BLA BLA BLA BLA BLA BLA 
BLA BLA BLA BLA BLA BLA BLA BLA BLA BLA BLA BLA BLA BLA BLA BLA BLA BLA BLA BLA 
BLA BLA BLA BLA BLA BLA BLA BLA BLA BLA BLA BLA BLA BLA BLA BLA BLA BLA BLA BLA 
BLA BLA BLA BLA BLA BLA BLA BLA BLA BLA BLA BLA BLA BLA BLA BLA BLA BLA BLA BLA 
BLA BLA BLA BLA BLA BLA BLA BLA BLA BLA BLA BLA BLA BLA BLA BLA BLA BLA BLA BLA 
BLA BLA BLA BLA BLA BLA BLA BLA BLA BLA BLA BLA BLA BLA BLA BLA BLA BLA BLA BLA 
BLA BLA BLA BLA BLA BLA BLA BLA BLA BLA BLA BLA BLA BLA BLA BLA BLA BLA BLA BLA 
BLA BLA BLA BLA BLA BLA BLA BLA BLA BLA BLA BLA BLA BLA BLA BLA BLA BLA BLA BLA 
BLA BLA BLA BLA BLA BLA BLA BLA BLA BLA BLA BLA BLA BLA BLA BLA BLA BLA BLA BLA 
BLA BLA BLA BLA BLA BLA BLA BLA BLA BLA BLA BLA BLA BLA BLA BLA BLA BLA BLA BLA 
BLA BLA BLA BLA BLA BLA BLA BLA BLA BLA BLA BLA BLA BLA BLA BLA BLA BLA BLA BLA 
BLA BLA BLA BLA BLA BLA BLA BLA BLA BLA BLA BLA BLA BLA BLA BLA BLA BLA BLA BLA 
BLA BLA BLA BLA BLA BLA BLA BLA BLA BLA BLA BLA BLA BLA BLA BLA BLA BLA BLA BLA 
BLA BLA BLA BLA BLA BLA BLA BLA BLA BLA BLA BLA BLA BLA BLA BLA BLA BLA BLA BLA 
BLA BLA BLA BLA BLA BLA BLA BLA BLA BLA BLA BLA BLA BLA BLA BLA BLA BLA BLA BLA 
BLA BLA BLA BLA BLA BLA BLA BLA BLA BLA BLA BLA BLA BLA BLA BLA BLA BLA BLA BLA 
BLA BLA BLA BLA BLA BLA BLA BLA BLA BLA BLA BLA BLA BLA BLA BLA BLA BLA BLA BLA 
BLA BLA BLA BLA BLA BLA BLA BLA BLA BLA BLA BLA BLA BLA BLA BLA BLA BLA BLA BLA 
BLA BLA BLA BLA BLA BLA BLA BLA BLA BLA BLA BLA BLA BLA BLA BLA BLA BLA BLA BLA 
BLA BLA BLA BLA BLA BLA BLA BLA BLA BLA BLA BLA BLA BLA BLA BLA BLA BLA BLA BLA 
BLA BLA BLA BLA BLA BLA BLA BLA BLA BLA BLA BLA BLA BLA BLA BLA BLA BLA BLA BLA 
BLA BLA BLA BLA BLA BLA BLA BLA BLA BLA BLA BLA BLA BLA BLA BLA BLA BLA BLA BLA 
BLA BLA BLA BLA BLA BLA BLA BLA BLA BLA BLA BLA BLA BLA BLA BLA BLA BLA BLA BLA 
BLA BLA BLA BLA BLA BLA BLA BLA BLA BLA BLA BLA BLA BLA BLA BLA BLA BLA BLA BLA 
BLA BLA BLA BLA BLA BLA BLA BLA BLA BLA BLA BLA BLA BLA BLA BLA BLA BLA BLA BLA 
BLA BLA BLA BLA BLA BLA BLA BLA BLA BLA BLA BLA BLA BLA BLA BLA BLA BLA BLA BLA 
BLA BLA BLA BLA BLA BLA BLA BLA BLA BLA BLA BLA BLA BLA BLA BLA BLA BLA BLA BLA 
BLA BLA BLA BLA BLA BLA BLA BLA BLA BLA BLA BLA BLA BLA BLA BLA BLA BLA BLA BLA 
BLA BLA BLA BLA BLA BLA BLA BLA BLA BLA BLA BLA BLA BLA BLA BLA BLA BLA BLA BLA 
BLA BLA BLA BLA BLA BLA BLA BLA BLA BLA BLA BLA BLA BLA BLA BLA BLA BLA BLA BLA 
BLA BLA BLA BLA BLA BLA BLA BLA BLA BLA BLA BLA BLA BLA BLA BLA BLA BLA BLA BLA 
BLA BLA BLA BLA BLA BLA BLA BLA BLA BLA BLA BLA BLA BLA BLA BLA BLA BLA BLA BLA 
BLA BLA BLA BLA BLA BLA BLA BLA BLA BLA BLA BLA BLA BLA BLA BLA BLA BLA BLA BLA 
BLA BLA BLA BLA BLA BLA BLA BLA BLA BLA BLA BLA BLA BLA BLA BLA BLA BLA BLA BLA 
BLA BLA BLA BLA BLA BLA BLA BLA BLA BLA BLA BLA BLA BLA BLA BLA BLA BLA BLA BLA 
BLA BLA BLA BLA BLA BLA BLA BLA BLA BLA BLA BLA BLA BLA BLA BLA BLA BLA BLA BLA 
BLA BLA BLA BLA BLA BLA BLA BLA BLA BLA BLA BLA BLA BLA BLA BLA BLA BLA BLA BLA 
BLA BLA BLA BLA BLA BLA BLA BLA BLA BLA BLA BLA BLA BLA BLA BLA BLA BLA BLA BLA 
BLA BLA BLA BLA BLA BLA BLA BLA BLA BLA BLA BLA BLA BLA BLA BLA BLA BLA BLA BLA 
BLA BLA BLA BLA BLA BLA BLA BLA BLA BLA BLA BLA BLA BLA BLA BLA BLA BLA BLA BLA 
BLA BLA BLA BLA BLA BLA BLA BLA BLA BLA BLA BLA BLA BLA BLA BLA BLA BLA BLA BLA 
BLA BLA BLA BLA BLA BLA BLA BLA BLA BLA BLA BLA BLA BLA BLA BLA BLA BLA BLA BLA 
BLA BLA BLA BLA BLA BLA BLA BLA BLA BLA BLA BLA BLA BLA BLA BLA BLA BLA BLA BLA 
BLA BLA BLA BLA BLA BLA BLA BLA BLA BLA BLA BLA BLA BLA BLA BLA BLA BLA BLA BLA 
BLA BLA BLA BLA BLA BLA BLA BLA BLA BLA BLA BLA BLA BLA BLA BLA BLA BLA BLA BLA 
BLA BLA BLA BLA BLA BLA BLA BLA BLA BLA BLA BLA BLA BLA BLA BLA BLA BLA BLA BLA 
BLA BLA BLA BLA BLA BLA BLA BLA BLA BLA BLA BLA BLA BLA BLA BLA BLA BLA BLA BLA 
BLA BLA BLA BLA BLA BLA BLA BLA BLA BLA BLA BLA BLA BLA BLA BLA BLA BLA BLA BLA 
BLA BLA BLA BLA BLA BLA BLA BLA BLA BLA BLA BLA BLA BLA BLA BLA BLA BLA BLA BLA 
BLA BLA BLA BLA BLA BLA BLA BLA BLA BLA BLA BLA BLA BLA BLA BLA BLA BLA BLA BLA 
BLA BLA BLA BLA BLA BLA BLA BLA BLA BLA BLA BLA BLA BLA BLA BLA BLA BLA BLA BLA 
BLA BLA BLA BLA BLA BLA BLA BLA BLA BLA BLA BLA BLA BLA BLA BLA BLA BLA BLA BLA 
BLA BLA BLA BLA BLA BLA BLA BLA BLA BLA BLA BLA BLA BLA BLA BLA BLA BLA BLA BLA 
BLA BLA BLA BLA BLA BLA BLA BLA BLA BLA BLA BLA BLA BLA BLA BLA BLA BLA BLA BLA 
BLA BLA BLA BLA BLA BLA BLA BLA BLA BLA BLA BLA BLA BLA BLA BLA BLA BLA BLA BLA 
BLA BLA BLA BLA BLA BLA BLA BLA BLA BLA BLA BLA BLA BLA BLA BLA BLA BLA BLA BLA 
BLA BLA BLA BLA BLA BLA BLA BLA BLA BLA BLA BLA BLA BLA BLA BLA BLA BLA BLA BLA 
BLA BLA BLA BLA BLA BLA BLA BLA BLA BLA BLA BLA BLA BLA BLA BLA BLA BLA BLA BLA 
BLA BLA BLA BLA BLA BLA BLA BLA BLA BLA BLA BLA BLA BLA BLA BLA BLA BLA BLA BLA 
BLA BLA BLA BLA BLA BLA BLA BLA BLA BLA BLA BLA BLA BLA BLA BLA BLA BLA BLA BLA 
BLA BLA BLA BLA BLA BLA BLA BLA BLA BLA BLA BLA BLA BLA BLA BLA BLA BLA BLA BLA 
BLA BLA BLA BLA BLA BLA BLA BLA BLA BLA BLA BLA BLA BLA BLA BLA BLA BLA BLA BLA 
BLA BLA BLA BLA BLA BLA BLA BLA BLA BLA BLA BLA BLA BLA BLA BLA BLA BLA BLA BLA 
BLA BLA BLA BLA BLA BLA BLA BLA BLA BLA BLA BLA BLA BLA BLA BLA BLA BLA BLA BLA 
BLA BLA BLA BLA BLA BLA BLA BLA BLA BLA BLA BLA BLA BLA BLA BLA BLA BLA BLA BLA 
BLA BLA BLA BLA BLA BLA BLA BLA BLA BLA BLA BLA BLA BLA BLA BLA BLA BLA BLA BLA 
BLA BLA BLA BLA BLA BLA BLA BLA BLA BLA BLA BLA BLA BLA BLA BLA BLA BLA BLA BLA 
BLA BLA BLA BLA BLA BLA BLA BLA BLA BLA BLA BLA BLA BLA BLA BLA BLA BLA BLA BLA 
BLA BLA BLA BLA BLA BLA BLA BLA BLA BLA BLA BLA BLA BLA BLA BLA BLA BLA BLA BLA 
BLA BLA BLA BLA BLA BLA BLA BLA BLA BLA BLA BLA BLA BLA BLA BLA BLA BLA BLA BLA 
BLA BLA BLA BLA BLA BLA BLA BLA BLA BLA BLA BLA BLA BLA BLA BLA BLA BLA BLA BLA 
BLA BLA BLA BLA BLA BLA BLA BLA BLA BLA BLA BLA BLA BLA BLA BLA BLA BLA BLA BLA 
BLA BLA BLA BLA BLA BLA BLA BLA BLA BLA BLA BLA BLA BLA BLA BLA BLA BLA BLA BLA 
BLA BLA BLA BLA BLA BLA BLA BLA BLA BLA BLA BLA BLA BLA BLA BLA BLA BLA BLA BLA 
BLA BLA BLA BLA BLA BLA BLA BLA BLA BLA BLA BLA BLA BLA BLA BLA BLA BLA BLA BLA 
BLA BLA BLA BLA BLA BLA BLA BLA BLA BLA BLA BLA BLA BLA BLA BLA BLA BLA BLA BLA 
BLA BLA BLA BLA BLA BLA BLA BLA BLA BLA BLA BLA BLA BLA BLA BLA BLA BLA BLA BLA 
BLA BLA BLA BLA BLA BLA BLA BLA BLA BLA BLA BLA BLA BLA BLA BLA BLA BLA BLA BLA 
BLA BLA BLA BLA BLA BLA BLA BLA BLA BLA BLA BLA BLA BLA BLA BLA BLA BLA BLA BLA 
BLA BLA BLA BLA BLA BLA BLA BLA BLA BLA BLA BLA BLA BLA BLA BLA BLA BLA BLA BLA 
BLA BLA BLA BLA BLA BLA BLA BLA BLA BLA BLA BLA BLA BLA BLA BLA BLA BLA BLA BLA 
BLA BLA BLA BLA BLA BLA BLA BLA BLA BLA BLA BLA BLA BLA BLA BLA BLA BLA BLA BLA 
BLA BLA BLA BLA BLA BLA BLA BLA BLA BLA BLA BLA BLA BLA BLA BLA BLA BLA BLA BLA 
BLA BLA BLA BLA BLA BLA BLA BLA BLA BLA BLA BLA BLA BLA BLA BLA BLA BLA BLA BLA 
BLA BLA BLA BLA BLA BLA BLA BLA BLA BLA BLA BLA BLA BLA BLA BLA BLA BLA BLA BLA 
BLA BLA BLA BLA BLA BLA BLA BLA BLA BLA BLA BLA BLA BLA BLA BLA BLA BLA BLA BLA 
BLA BLA BLA BLA BLA BLA BLA BLA BLA BLA BLA BLA BLA BLA BLA BLA BLA BLA BLA BLA 
BLA BLA BLA BLA BLA BLA BLA BLA BLA BLA BLA BLA BLA BLA BLA BLA BLA BLA BLA BLA 
BLA BLA BLA BLA BLA BLA BLA BLA BLA BLA BLA BLA BLA BLA BLA BLA BLA BLA BLA BLA 
BLA BLA BLA BLA BLA BLA BLA BLA BLA BLA BLA BLA BLA BLA BLA BLA BLA BLA BLA BLA 
BLA BLA BLA BLA BLA BLA BLA BLA BLA BLA BLA BLA BLA BLA BLA BLA BLA BLA BLA BLA 
BLA BLA BLA BLA BLA BLA BLA BLA BLA BLA BLA BLA BLA BLA BLA BLA BLA BLA BLA BLA 
BLA BLA BLA BLA BLA BLA BLA BLA BLA BLA BLA BLA BLA BLA BLA BLA BLA BLA BLA BLA 
BLA BLA BLA BLA BLA BLA BLA BLA BLA BLA BLA BLA BLA BLA BLA BLA BLA BLA BLA BLA 
BLA BLA BLA BLA BLA BLA BLA BLA BLA BLA BLA BLA BLA BLA BLA BLA BLA BLA BLA BLA 
BLA BLA BLA BLA BLA BLA BLA BLA BLA BLA BLA BLA BLA BLA BLA BLA BLA BLA BLA BLA 
BLA BLA BLA BLA BLA BLA BLA BLA BLA BLA BLA BLA BLA BLA BLA BLA BLA BLA BLA BLA 
BLA BLA BLA BLA BLA BLA BLA BLA BLA BLA BLA BLA BLA BLA BLA BLA BLA BLA BLA BLA 
BLA BLA BLA BLA BLA BLA BLA BLA BLA BLA BLA BLA BLA BLA BLA BLA BLA BLA BLA BLA 
BLA BLA BLA BLA BLA BLA BLA BLA BLA BLA BLA BLA BLA BLA BLA BLA BLA BLA BLA BLA 
BLA BLA BLA BLA BLA BLA BLA BLA BLA BLA BLA BLA BLA BLA BLA BLA BLA BLA BLA BLA 
BLA BLA BLA BLA BLA BLA BLA BLA BLA BLA BLA BLA BLA BLA BLA BLA BLA BLA BLA BLA 
BLA BLA BLA BLA BLA BLA BLA BLA BLA BLA BLA BLA BLA BLA BLA BLA BLA BLA BLA BLA 
BLA BLA BLA BLA BLA BLA BLA BLA BLA BLA BLA BLA BLA BLA BLA BLA BLA BLA BLA BLA 
BLA BLA BLA BLA BLA BLA BLA BLA BLA BLA BLA BLA BLA BLA BLA BLA BLA BLA BLA BLA 
BLA BLA BLA BLA BLA BLA BLA BLA BLA BLA BLA BLA BLA BLA BLA BLA BLA BLA BLA BLA 
BLA BLA BLA BLA BLA BLA BLA BLA BLA BLA BLA BLA BLA BLA BLA BLA BLA BLA BLA BLA 
BLA BLA BLA BLA BLA BLA BLA BLA BLA BLA BLA BLA BLA BLA BLA BLA BLA BLA BLA BLA 
BLA BLA BLA BLA BLA BLA BLA BLA BLA BLA BLA BLA BLA BLA BLA BLA BLA BLA BLA BLA 
BLA BLA BLA BLA BLA BLA BLA BLA BLA BLA BLA BLA BLA BLA BLA BLA BLA BLA BLA BLA 
BLA BLA BLA BLA BLA BLA BLA BLA BLA BLA BLA BLA BLA BLA BLA BLA BLA BLA BLA BLA 
BLA BLA BLA BLA BLA BLA BLA BLA BLA BLA BLA BLA BLA BLA BLA BLA BLA BLA BLA BLA 
BLA BLA BLA BLA BLA BLA BLA BLA BLA BLA BLA BLA BLA BLA BLA BLA BLA BLA BLA BLA 
BLA BLA BLA BLA BLA BLA BLA BLA BLA BLA BLA BLA BLA BLA BLA BLA BLA BLA BLA BLA 
BLA BLA BLA BLA BLA BLA BLA BLA BLA BLA BLA BLA BLA BLA BLA BLA BLA BLA BLA BLA 
BLA BLA BLA BLA BLA BLA BLA BLA BLA BLA BLA BLA BLA BLA BLA BLA BLA BLA BLA BLA 
BLA BLA BLA BLA BLA BLA BLA BLA BLA BLA BLA BLA BLA BLA BLA BLA BLA BLA BLA BLA 
BLA BLA BLA BLA BLA BLA BLA BLA BLA BLA BLA BLA BLA BLA BLA BLA BLA BLA BLA BLA 
BLA BLA BLA BLA BLA BLA BLA BLA BLA BLA BLA BLA BLA BLA BLA BLA BLA BLA BLA BLA 
BLA BLA BLA BLA BLA BLA BLA BLA BLA BLA BLA BLA BLA BLA BLA BLA BLA BLA BLA BLA 
BLA BLA BLA BLA BLA BLA BLA BLA BLA BLA BLA BLA BLA BLA BLA BLA BLA BLA BLA BLA 
BLA BLA BLA BLA BLA BLA BLA BLA BLA BLA BLA BLA BLA BLA BLA BLA BLA BLA BLA BLA 
BLA BLA BLA BLA BLA BLA BLA BLA BLA BLA BLA BLA BLA BLA BLA BLA BLA BLA BLA BLA 
BLA BLA BLA BLA BLA BLA BLA BLA BLA BLA BLA BLA BLA BLA BLA BLA BLA BLA BLA BLA 
BLA BLA BLA BLA BLA BLA BLA BLA BLA BLA BLA BLA BLA BLA BLA BLA BLA BLA BLA BLA 
BLA BLA BLA BLA BLA BLA BLA BLA BLA BLA BLA BLA BLA BLA BLA BLA BLA BLA BLA BLA 
BLA BLA BLA BLA BLA BLA BLA BLA BLA BLA BLA BLA BLA BLA BLA BLA BLA BLA BLA BLA 
BLA BLA BLA BLA BLA BLA BLA BLA BLA BLA BLA BLA BLA BLA BLA BLA BLA BLA BLA BLA 
BLA BLA BLA BLA BLA BLA BLA BLA BLA BLA BLA BLA BLA BLA BLA BLA BLA BLA BLA BLA 
BLA BLA BLA BLA BLA BLA BLA BLA BLA BLA BLA BLA BLA BLA BLA BLA BLA BLA BLA BLA 
BLA BLA BLA BLA BLA BLA BLA BLA BLA BLA BLA BLA BLA BLA BLA BLA BLA BLA BLA BLA 
BLA BLA BLA BLA BLA BLA BLA BLA BLA BLA BLA BLA BLA BLA BLA BLA BLA BLA BLA BLA 
BLA BLA BLA BLA BLA BLA BLA BLA BLA BLA BLA BLA BLA BLA BLA BLA BLA BLA BLA BLA 
BLA BLA BLA BLA BLA BLA BLA BLA BLA BLA BLA BLA BLA BLA BLA BLA BLA BLA BLA BLA 
BLA BLA BLA BLA BLA BLA BLA BLA BLA BLA BLA BLA BLA BLA BLA BLA BLA BLA BLA BLA 
BLA BLA BLA BLA BLA BLA BLA BLA BLA BLA BLA BLA BLA BLA BLA BLA BLA BLA BLA BLA 
BLA BLA BLA BLA BLA BLA BLA BLA BLA BLA BLA BLA BLA BLA BLA BLA BLA BLA BLA BLA 
BLA BLA BLA BLA BLA BLA BLA BLA BLA BLA BLA BLA BLA BLA BLA BLA BLA BLA BLA BLA 
BLA BLA BLA BLA BLA BLA BLA BLA BLA BLA BLA BLA BLA BLA BLA BLA BLA BLA BLA BLA 
BLA BLA BLA BLA BLA BLA BLA BLA BLA BLA BLA BLA BLA BLA BLA BLA BLA BLA BLA BLA 
BLA BLA BLA BLA BLA BLA BLA BLA BLA BLA BLA BLA BLA BLA BLA BLA BLA BLA BLA BLA 
BLA BLA BLA BLA BLA BLA BLA BLA BLA BLA BLA BLA BLA BLA BLA BLA BLA BLA BLA BLA 
BLA BLA BLA BLA BLA BLA BLA BLA BLA BLA BLA BLA BLA BLA BLA BLA BLA BLA BLA BLA 
BLA BLA BLA BLA BLA BLA BLA BLA BLA BLA BLA BLA BLA BLA BLA BLA BLA BLA BLA BLA 
BLA BLA BLA BLA BLA BLA BLA BLA BLA BLA BLA BLA BLA BLA BLA BLA BLA BLA BLA BLA 
BLA BLA BLA BLA BLA BLA BLA BLA BLA BLA BLA BLA BLA BLA BLA BLA BLA BLA BLA BLA 
BLA BLA BLA BLA BLA BLA BLA BLA BLA BLA BLA BLA BLA BLA BLA BLA BLA BLA BLA BLA 
BLA BLA BLA BLA BLA BLA BLA BLA BLA BLA BLA BLA BLA BLA BLA BLA BLA BLA BLA BLA 
BLA BLA BLA BLA BLA BLA BLA BLA BLA BLA BLA BLA BLA BLA BLA BLA BLA BLA BLA BLA 
BLA BLA BLA BLA BLA BLA BLA BLA BLA BLA BLA BLA BLA BLA BLA BLA BLA BLA BLA BLA 
BLA BLA BLA BLA BLA BLA BLA BLA BLA BLA BLA BLA BLA BLA BLA BLA BLA BLA BLA BLA 
BLA BLA BLA BLA BLA BLA BLA BLA BLA BLA BLA BLA BLA BLA BLA BLA BLA BLA BLA BLA 
BLA BLA BLA BLA BLA BLA BLA BLA BLA BLA BLA BLA BLA BLA BLA BLA BLA BLA BLA BLA 
BLA BLA BLA BLA BLA BLA BLA BLA BLA BLA BLA BLA BLA BLA BLA BLA BLA BLA BLA BLA 
BLA BLA BLA BLA BLA BLA BLA BLA BLA BLA BLA BLA BLA BLA BLA BLA BLA BLA BLA BLA 
BLA BLA BLA BLA BLA BLA BLA BLA BLA BLA BLA BLA BLA BLA BLA BLA BLA BLA BLA BLA 
BLA BLA BLA BLA BLA BLA BLA BLA BLA BLA BLA BLA BLA BLA BLA BLA BLA BLA BLA BLA 
BLA BLA BLA BLA BLA BLA BLA BLA BLA BLA BLA BLA BLA BLA BLA BLA BLA BLA BLA BLA 
BLA BLA BLA BLA BLA BLA BLA BLA BLA BLA BLA BLA BLA BLA BLA BLA BLA BLA BLA BLA 
BLA BLA BLA BLA BLA BLA BLA BLA BLA BLA BLA BLA BLA BLA BLA BLA BLA BLA BLA BLA 
BLA BLA BLA BLA BLA BLA BLA BLA BLA BLA BLA BLA BLA BLA BLA BLA BLA BLA BLA BLA 
BLA BLA BLA BLA BLA BLA BLA BLA BLA BLA BLA BLA BLA BLA BLA BLA BLA BLA BLA BLA 
BLA BLA BLA BLA BLA BLA BLA BLA BLA BLA BLA BLA BLA BLA BLA BLA BLA BLA BLA BLA 
BLA BLA BLA BLA BLA BLA BLA BLA BLA BLA BLA BLA BLA BLA BLA BLA BLA BLA BLA BLA 
BLA BLA BLA BLA BLA BLA BLA BLA BLA BLA BLA BLA BLA BLA BLA BLA BLA BLA BLA BLA 
BLA BLA BLA BLA BLA BLA BLA BLA BLA BLA BLA BLA BLA BLA BLA BLA BLA BLA BLA BLA 
BLA BLA BLA BLA BLA BLA BLA BLA BLA BLA BLA BLA BLA BLA BLA BLA BLA BLA BLA BLA 
BLA BLA BLA BLA BLA BLA BLA BLA BLA BLA BLA BLA BLA BLA BLA BLA BLA BLA BLA BLA 
BLA BLA BLA BLA BLA BLA BLA BLA BLA BLA BLA BLA BLA BLA BLA BLA BLA BLA BLA BLA 
BLA BLA BLA BLA BLA BLA BLA BLA BLA BLA BLA BLA BLA BLA BLA BLA BLA BLA BLA BLA 
BLA BLA BLA BLA BLA BLA BLA BLA BLA BLA BLA BLA BLA BLA BLA BLA BLA BLA BLA BLA 
BLA BLA BLA BLA BLA BLA BLA BLA BLA BLA BLA BLA BLA BLA BLA BLA BLA BLA BLA BLA 
BLA BLA BLA BLA BLA BLA BLA BLA BLA BLA BLA BLA BLA BLA BLA BLA BLA BLA BLA BLA 
BLA BLA BLA BLA BLA BLA BLA BLA BLA BLA BLA BLA BLA BLA BLA BLA BLA BLA BLA BLA 
BLA BLA BLA BLA BLA BLA BLA BLA BLA BLA BLA BLA BLA BLA BLA BLA BLA BLA BLA BLA 
BLA BLA BLA BLA BLA BLA BLA BLA BLA BLA BLA BLA BLA BLA BLA BLA BLA BLA BLA BLA 
BLA BLA BLA BLA BLA BLA BLA BLA BLA BLA BLA BLA BLA BLA BLA BLA BLA BLA BLA BLA 
BLA BLA BLA BLA BLA BLA BLA BLA BLA BLA BLA BLA BLA BLA BLA BLA BLA BLA BLA BLA 
BLA BLA BLA BLA BLA BLA BLA BLA BLA BLA BLA BLA BLA BLA BLA BLA BLA BLA BLA BLA 
BLA BLA BLA BLA BLA BLA BLA BLA BLA BLA BLA BLA BLA BLA BLA BLA BLA BLA BLA BLA 
BLA BLA BLA BLA BLA BLA BLA BLA BLA BLA BLA BLA BLA BLA BLA BLA BLA BLA BLA BLA 
BLA BLA BLA BLA BLA BLA BLA BLA BLA BLA BLA BLA BLA BLA BLA BLA BLA BLA BLA BLA 
BLA BLA BLA BLA BLA BLA BLA BLA BLA BLA BLA BLA BLA BLA BLA BLA BLA BLA BLA BLA 
BLA BLA BLA BLA BLA BLA BLA BLA BLA BLA BLA BLA BLA BLA BLA BLA BLA BLA BLA BLA 
BLA BLA BLA BLA BLA BLA BLA BLA BLA BLA BLA BLA BLA BLA BLA BLA BLA BLA BLA BLA 
BLA BLA BLA BLA BLA BLA BLA BLA BLA BLA BLA BLA BLA BLA BLA BLA BLA BLA BLA BLA 
BLA BLA BLA BLA BLA BLA BLA BLA BLA BLA BLA BLA BLA BLA BLA BLA BLA BLA BLA BLA 
BLA BLA BLA BLA BLA BLA BLA BLA BLA BLA BLA BLA BLA BLA BLA BLA BLA BLA BLA BLA 
BLA BLA BLA BLA BLA BLA BLA BLA BLA BLA BLA BLA BLA BLA BLA BLA BLA BLA BLA BLA 
BLA BLA BLA BLA BLA BLA BLA BLA BLA BLA BLA BLA BLA BLA BLA BLA BLA BLA BLA BLA 
BLA BLA BLA BLA BLA BLA BLA BLA BLA BLA BLA BLA BLA BLA BLA BLA BLA BLA BLA BLA 
BLA BLA BLA BLA BLA BLA BLA BLA BLA BLA BLA BLA BLA BLA BLA BLA BLA BLA BLA BLA 
BLA BLA BLA BLA BLA BLA BLA BLA BLA BLA BLA BLA BLA BLA BLA BLA BLA BLA BLA BLA 
BLA BLA BLA BLA BLA BLA BLA BLA BLA BLA BLA BLA BLA BLA BLA BLA BLA BLA BLA BLA 
BLA BLA BLA BLA BLA BLA BLA BLA BLA BLA BLA BLA BLA BLA BLA BLA BLA BLA BLA BLA 
BLA BLA BLA BLA BLA BLA BLA BLA BLA BLA BLA BLA BLA BLA BLA BLA BLA BLA BLA BLA 
BLA BLA BLA BLA BLA BLA BLA BLA BLA BLA BLA BLA BLA BLA BLA BLA BLA BLA BLA BLA 
BLA BLA BLA BLA BLA BLA BLA BLA BLA BLA BLA BLA BLA BLA BLA BLA BLA BLA BLA BLA 
BLA BLA BLA BLA BLA BLA BLA BLA BLA BLA BLA BLA BLA BLA BLA BLA BLA BLA BLA BLA 
BLA BLA BLA BLA BLA BLA BLA BLA BLA BLA BLA BLA BLA BLA BLA BLA BLA BLA BLA BLA 
BLA BLA BLA BLA BLA BLA BLA BLA BLA BLA BLA BLA BLA BLA BLA BLA BLA BLA BLA BLA 
BLA BLA BLA BLA BLA BLA BLA BLA BLA BLA BLA BLA BLA BLA BLA BLA BLA BLA BLA BLA 
BLA BLA BLA BLA BLA BLA BLA BLA BLA BLA BLA BLA BLA BLA BLA BLA BLA BLA BLA BLA 
BLA BLA BLA BLA BLA BLA BLA BLA BLA BLA BLA BLA BLA BLA BLA BLA BLA BLA BLA BLA 
BLA BLA BLA BLA BLA BLA BLA BLA BLA BLA BLA BLA BLA BLA BLA BLA BLA BLA BLA BLA 
BLA BLA BLA BLA BLA BLA BLA BLA BLA BLA BLA BLA BLA BLA BLA BLA BLA BLA BLA BLA 
BLA BLA BLA BLA BLA BLA BLA BLA BLA BLA BLA BLA BLA BLA BLA BLA BLA BLA BLA BLA 
BLA BLA BLA BLA BLA BLA BLA BLA BLA BLA BLA BLA BLA BLA BLA BLA BLA BLA BLA BLA 
BLA BLA BLA BLA BLA BLA BLA BLA BLA BLA BLA BLA BLA BLA BLA BLA BLA BLA BLA BLA 
BLA BLA BLA BLA BLA BLA BLA BLA BLA BLA BLA BLA BLA BLA BLA BLA BLA BLA BLA BLA 
BLA BLA BLA BLA BLA BLA BLA BLA BLA BLA BLA BLA BLA BLA BLA BLA BLA BLA BLA BLA 
BLA BLA BLA BLA BLA BLA BLA BLA BLA BLA BLA BLA BLA BLA BLA BLA BLA BLA BLA BLA 
BLA BLA BLA BLA BLA BLA BLA BLA BLA BLA BLA BLA BLA BLA BLA BLA BLA BLA BLA BLA 
BLA BLA BLA BLA BLA BLA BLA BLA BLA BLA BLA BLA BLA BLA BLA BLA BLA BLA BLA BLA 
BLA BLA BLA BLA BLA BLA BLA BLA BLA BLA BLA BLA BLA BLA BLA BLA BLA BLA BLA BLA 
BLA BLA BLA BLA BLA BLA BLA BLA BLA BLA BLA BLA BLA BLA BLA BLA BLA BLA BLA BLA 
BLA BLA BLA BLA BLA BLA BLA BLA BLA BLA BLA BLA BLA BLA BLA BLA BLA BLA BLA BLA 
BLA BLA BLA BLA BLA BLA BLA BLA BLA BLA BLA BLA BLA BLA BLA BLA BLA BLA BLA BLA 
BLA BLA BLA BLA BLA BLA BLA BLA BLA BLA BLA BLA BLA BLA BLA BLA BLA BLA BLA BLA 
BLA BLA BLA BLA BLA BLA BLA BLA BLA BLA BLA BLA BLA BLA BLA BLA BLA BLA BLA BLA 
BLA BLA BLA BLA BLA BLA BLA BLA BLA BLA BLA BLA BLA BLA BLA BLA BLA BLA BLA BLA 
BLA BLA BLA BLA BLA BLA BLA BLA BLA BLA BLA BLA BLA BLA BLA BLA BLA BLA BLA BLA 
BLA BLA BLA BLA BLA BLA BLA BLA BLA BLA BLA BLA BLA BLA BLA BLA BLA BLA BLA BLA 
BLA BLA BLA BLA BLA BLA BLA BLA BLA BLA BLA BLA BLA BLA BLA BLA BLA BLA BLA BLA 
BLA BLA BLA BLA BLA BLA BLA BLA BLA BLA BLA BLA BLA BLA BLA BLA BLA BLA BLA BLA 
BLA BLA BLA BLA BLA BLA BLA BLA BLA BLA BLA BLA BLA BLA BLA BLA BLA BLA BLA BLA 
BLA BLA BLA BLA BLA BLA BLA BLA BLA BLA BLA BLA BLA BLA BLA BLA BLA BLA BLA BLA 
BLA BLA BLA BLA BLA BLA BLA BLA BLA BLA BLA BLA BLA BLA BLA BLA BLA BLA BLA BLA 
BLA BLA BLA BLA BLA BLA BLA BLA BLA BLA BLA BLA BLA BLA BLA BLA BLA BLA BLA BLA 
BLA BLA BLA BLA BLA BLA BLA BLA BLA BLA BLA BLA BLA BLA BLA BLA BLA BLA BLA BLA 
BLA BLA BLA BLA BLA BLA BLA BLA BLA BLA BLA BLA BLA BLA BLA BLA BLA BLA BLA BLA 
BLA BLA BLA BLA BLA BLA BLA BLA BLA BLA BLA BLA BLA BLA BLA BLA BLA BLA BLA BLA 
BLA BLA BLA BLA BLA BLA BLA BLA BLA BLA BLA BLA BLA BLA BLA BLA BLA BLA BLA BLA 
BLA BLA BLA BLA BLA BLA BLA BLA BLA BLA BLA BLA BLA BLA BLA BLA BLA BLA BLA BLA 
BLA BLA BLA BLA BLA BLA BLA BLA BLA BLA BLA BLA BLA BLA BLA BLA BLA BLA BLA BLA 
BLA BLA BLA BLA BLA BLA BLA BLA BLA BLA BLA BLA BLA BLA BLA BLA BLA BLA BLA BLA 
BLA BLA BLA BLA BLA BLA BLA BLA BLA BLA BLA BLA BLA BLA BLA BLA BLA BLA BLA BLA 
BLA BLA BLA BLA BLA BLA BLA BLA BLA BLA BLA BLA BLA BLA BLA BLA BLA BLA BLA BLA 
BLA BLA BLA BLA BLA BLA BLA BLA BLA BLA BLA BLA BLA BLA BLA BLA BLA BLA BLA BLA 
BLA BLA BLA BLA BLA BLA BLA BLA BLA BLA BLA BLA BLA BLA BLA BLA BLA BLA BLA BLA 
BLA BLA BLA BLA BLA BLA BLA BLA BLA BLA BLA BLA BLA BLA BLA BLA BLA BLA BLA BLA 
BLA BLA BLA BLA BLA BLA BLA BLA BLA BLA BLA BLA BLA BLA BLA BLA BLA BLA BLA BLA 
BLA BLA BLA BLA BLA BLA BLA BLA BLA BLA BLA BLA BLA BLA BLA BLA BLA BLA BLA BLA 
BLA BLA BLA BLA BLA BLA BLA BLA BLA BLA BLA BLA BLA BLA BLA BLA BLA BLA BLA BLA 
BLA BLA BLA BLA BLA BLA BLA BLA BLA BLA BLA BLA BLA BLA BLA BLA BLA BLA BLA BLA 
BLA BLA BLA BLA BLA BLA BLA BLA BLA BLA BLA BLA BLA BLA BLA BLA BLA BLA BLA BLA 
BLA BLA BLA BLA BLA BLA BLA BLA BLA BLA BLA BLA BLA BLA BLA BLA BLA BLA BLA BLA 
BLA BLA BLA BLA BLA BLA BLA BLA BLA BLA BLA BLA BLA BLA BLA BLA BLA BLA BLA BLA 
BLA BLA BLA BLA BLA BLA BLA BLA BLA BLA BLA BLA BLA BLA BLA BLA BLA BLA BLA BLA 
BLA BLA BLA BLA BLA BLA BLA BLA BLA BLA BLA BLA BLA BLA BLA BLA BLA BLA BLA BLA 
BLA BLA BLA BLA BLA BLA BLA BLA BLA BLA BLA BLA BLA BLA BLA BLA BLA BLA BLA BLA 
BLA BLA BLA BLA BLA BLA BLA BLA BLA BLA BLA BLA BLA BLA BLA BLA BLA BLA BLA BLA 
BLA BLA BLA BLA BLA BLA BLA BLA BLA BLA BLA BLA BLA BLA BLA BLA BLA BLA BLA BLA 
BLA BLA BLA BLA BLA BLA BLA BLA BLA BLA BLA BLA BLA BLA BLA BLA BLA BLA BLA BLA 
BLA BLA BLA BLA BLA BLA BLA BLA BLA BLA BLA BLA BLA BLA BLA BLA BLA BLA BLA BLA 
BLA BLA BLA BLA BLA BLA BLA BLA BLA BLA BLA BLA BLA BLA BLA BLA BLA BLA BLA BLA 
BLA BLA BLA BLA BLA BLA BLA BLA BLA BLA BLA BLA BLA BLA BLA BLA BLA BLA BLA BLA 
BLA BLA BLA BLA BLA BLA BLA BLA BLA BLA BLA BLA BLA BLA BLA BLA BLA BLA BLA BLA 
BLA BLA BLA BLA BLA BLA BLA BLA BLA BLA BLA BLA BLA BLA BLA BLA BLA BLA BLA BLA 
BLA BLA BLA BLA BLA BLA BLA BLA BLA BLA BLA BLA BLA BLA BLA BLA BLA BLA BLA BLA 
BLA BLA BLA BLA BLA BLA BLA BLA BLA BLA BLA BLA BLA BLA BLA BLA BLA BLA BLA BLA 
BLA BLA BLA BLA BLA BLA BLA BLA BLA BLA BLA BLA BLA BLA BLA BLA BLA BLA BLA BLA 
BLA BLA BLA BLA BLA BLA BLA BLA BLA BLA BLA BLA BLA BLA BLA BLA BLA BLA BLA BLA 
BLA BLA BLA BLA BLA BLA BLA BLA BLA BLA BLA BLA BLA BLA BLA BLA BLA BLA BLA BLA 
BLA BLA BLA BLA BLA BLA BLA BLA BLA BLA BLA BLA BLA BLA BLA BLA BLA BLA BLA BLA 
BLA BLA BLA BLA BLA BLA BLA BLA BLA BLA BLA BLA BLA BLA BLA BLA BLA BLA BLA BLA 
BLA BLA BLA BLA BLA BLA BLA BLA BLA BLA BLA BLA BLA BLA BLA BLA BLA BLA BLA BLA 
BLA BLA BLA BLA BLA BLA BLA BLA BLA BLA BLA BLA BLA BLA BLA BLA BLA BLA BLA BLA 
BLA BLA BLA BLA BLA BLA BLA BLA BLA BLA BLA BLA BLA BLA BLA BLA BLA BLA BLA BLA 
BLA BLA BLA BLA BLA BLA BLA BLA BLA BLA BLA BLA BLA BLA BLA BLA BLA BLA BLA BLA 
BLA BLA BLA BLA BLA BLA BLA BLA BLA BLA BLA BLA BLA BLA BLA BLA BLA BLA BLA BLA 
BLA BLA BLA BLA BLA BLA BLA BLA BLA BLA BLA BLA BLA BLA BLA BLA BLA BLA BLA BLA 
BLA BLA BLA BLA BLA BLA BLA BLA BLA BLA BLA BLA BLA BLA BLA BLA BLA BLA BLA BLA 
BLA BLA BLA BLA BLA BLA BLA BLA BLA BLA BLA BLA BLA BLA BLA BLA BLA BLA BLA BLA 
BLA BLA BLA BLA BLA BLA BLA BLA BLA BLA BLA BLA BLA BLA BLA BLA BLA BLA BLA BLA 
BLA BLA BLA BLA BLA BLA BLA BLA BLA BLA BLA BLA BLA BLA BLA BLA BLA BLA BLA BLA 
BLA BLA BLA BLA BLA BLA BLA BLA BLA BLA BLA BLA BLA BLA BLA BLA BLA BLA BLA BLA 
BLA BLA BLA BLA BLA BLA BLA BLA BLA BLA BLA BLA BLA BLA BLA BLA BLA BLA BLA BLA 
BLA BLA BLA BLA BLA BLA BLA BLA BLA BLA BLA BLA BLA BLA BLA BLA BLA BLA BLA BLA 
BLA BLA BLA BLA BLA BLA BLA BLA BLA BLA BLA BLA BLA BLA BLA BLA BLA BLA BLA BLA 
BLA BLA BLA BLA BLA BLA BLA BLA BLA BLA BLA BLA BLA BLA BLA BLA BLA BLA BLA BLA 
BLA BLA BLA BLA BLA BLA BLA BLA BLA BLA BLA BLA BLA BLA BLA BLA BLA BLA BLA BLA 
BLA BLA BLA BLA BLA BLA BLA BLA BLA BLA BLA BLA BLA BLA BLA BLA BLA BLA BLA BLA 
BLA BLA BLA BLA BLA BLA BLA BLA BLA BLA BLA BLA BLA BLA BLA BLA BLA BLA BLA BLA 
BLA BLA BLA BLA BLA BLA BLA BLA BLA BLA BLA BLA BLA BLA BLA BLA BLA BLA BLA BLA 
BLA BLA BLA BLA BLA BLA BLA BLA BLA BLA BLA BLA BLA BLA BLA BLA BLA BLA BLA BLA 
BLA BLA BLA BLA BLA BLA BLA BLA BLA BLA BLA BLA BLA BLA BLA BLA BLA BLA BLA BLA 
BLA BLA BLA BLA BLA BLA BLA BLA BLA BLA BLA BLA BLA BLA BLA BLA BLA BLA BLA BLA 
BLA BLA BLA BLA BLA BLA BLA BLA BLA BLA BLA BLA BLA BLA BLA BLA BLA BLA BLA BLA 
BLA BLA BLA BLA BLA BLA BLA BLA BLA BLA BLA BLA BLA BLA BLA BLA BLA BLA BLA BLA 
BLA BLA BLA BLA BLA BLA BLA BLA BLA BLA BLA BLA BLA BLA BLA BLA BLA BLA BLA BLA 
BLA BLA BLA BLA BLA BLA BLA BLA BLA BLA BLA BLA BLA BLA BLA BLA BLA BLA BLA BLA 
BLA BLA BLA BLA BLA BLA BLA BLA BLA BLA BLA BLA BLA BLA BLA BLA BLA BLA BLA BLA 
BLA BLA BLA BLA BLA BLA BLA BLA BLA BLA BLA BLA BLA BLA BLA BLA BLA BLA BLA BLA 
BLA BLA BLA BLA BLA BLA BLA BLA BLA BLA BLA BLA BLA BLA BLA BLA BLA BLA BLA BLA 
BLA BLA BLA BLA BLA BLA BLA BLA BLA BLA BLA BLA BLA BLA BLA BLA BLA BLA BLA BLA 
BLA BLA BLA BLA BLA BLA BLA BLA BLA BLA BLA BLA BLA BLA BLA BLA BLA BLA BLA BLA 
BLA BLA BLA BLA BLA BLA BLA BLA BLA BLA BLA BLA BLA BLA BLA BLA BLA BLA BLA BLA 
BLA BLA BLA BLA BLA BLA BLA BLA BLA BLA BLA BLA BLA BLA BLA BLA BLA BLA BLA BLA 
BLA BLA BLA BLA BLA BLA BLA BLA BLA BLA BLA BLA BLA BLA BLA BLA BLA BLA BLA BLA 
BLA BLA BLA BLA BLA BLA BLA BLA BLA BLA BLA BLA BLA BLA BLA BLA BLA BLA BLA BLA 
BLA BLA BLA BLA BLA BLA BLA BLA BLA BLA BLA BLA BLA BLA BLA BLA BLA BLA BLA BLA 
BLA BLA BLA BLA BLA BLA BLA BLA BLA BLA BLA BLA BLA BLA BLA BLA BLA BLA BLA BLA 
BLA BLA BLA BLA BLA BLA BLA BLA BLA BLA BLA BLA BLA BLA BLA BLA BLA BLA BLA BLA 
BLA BLA BLA BLA BLA BLA BLA BLA BLA BLA BLA BLA BLA BLA BLA BLA BLA BLA BLA BLA 
BLA BLA BLA BLA BLA BLA BLA BLA BLA BLA BLA BLA BLA BLA BLA BLA BLA BLA BLA BLA 
BLA BLA BLA BLA BLA BLA BLA BLA BLA BLA BLA BLA BLA BLA BLA BLA BLA BLA BLA BLA 
BLA BLA BLA BLA BLA BLA BLA BLA BLA BLA BLA BLA BLA BLA BLA BLA BLA BLA BLA BLA 
BLA BLA BLA BLA BLA BLA BLA BLA BLA BLA BLA BLA BLA BLA BLA BLA BLA BLA BLA BLA 
BLA BLA BLA BLA BLA BLA BLA BLA BLA BLA BLA BLA BLA BLA BLA BLA BLA BLA BLA BLA 
BLA BLA BLA BLA BLA BLA BLA BLA BLA BLA BLA BLA BLA BLA BLA BLA BLA BLA BLA BLA 
BLA BLA BLA BLA BLA BLA BLA BLA BLA BLA BLA BLA BLA BLA BLA BLA BLA BLA BLA BLA 
BLA BLA BLA BLA BLA BLA BLA BLA BLA BLA BLA BLA BLA BLA BLA BLA BLA BLA BLA BLA 
BLA BLA BLA BLA BLA BLA BLA BLA BLA BLA BLA BLA BLA BLA BLA BLA BLA BLA BLA BLA 
BLA BLA BLA BLA BLA BLA BLA BLA BLA BLA BLA BLA BLA BLA BLA BLA BLA BLA BLA BLA 
BLA BLA BLA BLA BLA BLA BLA BLA BLA BLA BLA BLA BLA BLA BLA BLA BLA BLA BLA BLA 
BLA BLA BLA BLA BLA BLA BLA BLA BLA BLA BLA BLA BLA BLA BLA BLA BLA BLA BLA BLA 
BLA BLA BLA BLA BLA BLA BLA BLA BLA BLA BLA BLA BLA BLA BLA BLA BLA BLA BLA BLA 
BLA BLA BLA BLA BLA BLA BLA BLA BLA BLA BLA BLA BLA BLA BLA BLA BLA BLA BLA BLA 
BLA BLA BLA BLA BLA BLA BLA BLA BLA BLA BLA BLA BLA BLA BLA BLA BLA BLA BLA BLA 
BLA BLA BLA BLA BLA BLA BLA BLA BLA BLA BLA BLA BLA BLA BLA BLA BLA BLA BLA BLA 
BLA BLA BLA BLA BLA BLA BLA BLA BLA BLA BLA BLA BLA BLA BLA BLA BLA BLA BLA BLA 
BLA BLA BLA BLA BLA BLA BLA BLA BLA BLA BLA BLA BLA BLA BLA BLA BLA BLA BLA BLA 
BLA BLA BLA BLA BLA BLA BLA BLA BLA BLA BLA BLA BLA BLA BLA BLA BLA BLA BLA BLA 
BLA BLA BLA BLA BLA BLA BLA BLA BLA BLA BLA BLA BLA BLA BLA BLA BLA BLA BLA BLA 
BLA BLA BLA BLA BLA BLA BLA BLA BLA BLA BLA BLA BLA BLA BLA BLA BLA BLA BLA BLA 
BLA BLA BLA BLA BLA BLA BLA BLA BLA BLA BLA BLA BLA BLA BLA BLA BLA BLA BLA BLA 
BLA BLA BLA BLA BLA BLA BLA BLA BLA BLA BLA BLA BLA BLA BLA BLA BLA BLA BLA BLA 
BLA BLA BLA BLA BLA BLA BLA BLA BLA BLA BLA BLA BLA BLA BLA BLA BLA BLA BLA BLA 
BLA BLA BLA BLA BLA BLA BLA BLA BLA BLA BLA BLA BLA BLA BLA BLA BLA BLA BLA BLA 
BLA BLA BLA BLA BLA BLA BLA BLA BLA BLA BLA BLA BLA BLA BLA BLA BLA BLA BLA BLA 
BLA BLA BLA BLA BLA BLA BLA BLA BLA BLA BLA BLA BLA BLA BLA BLA BLA BLA BLA BLA 
BLA BLA BLA BLA BLA BLA BLA BLA BLA BLA BLA BLA BLA BLA BLA BLA BLA BLA BLA BLA 
BLA BLA BLA BLA BLA BLA BLA BLA BLA BLA BLA BLA BLA BLA BLA BLA BLA BLA BLA BLA 
BLA BLA BLA BLA BLA BLA BLA BLA BLA BLA BLA BLA BLA BLA BLA BLA BLA BLA BLA BLA 
BLA BLA BLA BLA BLA BLA BLA BLA BLA BLA BLA BLA BLA BLA BLA BLA BLA BLA BLA BLA 
BLA BLA BLA BLA BLA BLA BLA BLA BLA BLA BLA BLA BLA BLA BLA BLA BLA BLA BLA BLA 
BLA BLA BLA BLA BLA BLA BLA BLA BLA BLA BLA BLA BLA BLA BLA BLA BLA BLA BLA BLA 
BLA BLA BLA BLA BLA BLA BLA BLA BLA BLA BLA BLA BLA BLA BLA BLA BLA BLA BLA BLA 
BLA BLA BLA BLA BLA BLA BLA BLA BLA BLA BLA BLA BLA BLA BLA BLA BLA BLA BLA BLA 
BLA BLA BLA BLA BLA BLA BLA BLA BLA BLA BLA BLA BLA BLA BLA BLA BLA BLA BLA BLA 
BLA BLA BLA BLA BLA BLA BLA BLA BLA BLA BLA BLA BLA BLA BLA BLA BLA BLA BLA BLA 
BLA BLA BLA BLA BLA BLA BLA BLA BLA BLA BLA BLA BLA BLA BLA BLA BLA BLA BLA BLA 
BLA BLA BLA BLA BLA BLA BLA BLA BLA BLA BLA BLA BLA BLA BLA BLA BLA BLA BLA BLA 
BLA BLA BLA BLA BLA BLA BLA BLA BLA BLA BLA BLA BLA BLA BLA BLA BLA BLA BLA BLA 
BLA BLA BLA BLA BLA BLA BLA BLA BLA BLA BLA BLA BLA BLA BLA BLA BLA BLA BLA BLA 
BLA BLA BLA BLA BLA BLA BLA BLA BLA BLA BLA BLA BLA BLA BLA BLA BLA BLA BLA BLA 
BLA BLA BLA BLA BLA BLA BLA BLA BLA BLA BLA BLA BLA BLA BLA BLA BLA BLA BLA BLA 
BLA BLA BLA BLA BLA BLA BLA BLA BLA BLA BLA BLA BLA BLA BLA BLA BLA BLA BLA BLA 
BLA BLA BLA BLA BLA BLA BLA BLA BLA BLA BLA BLA BLA BLA BLA BLA BLA BLA BLA BLA 
BLA BLA BLA BLA BLA BLA BLA BLA BLA BLA BLA BLA BLA BLA BLA BLA BLA BLA BLA BLA 
BLA BLA BLA BLA BLA BLA BLA BLA BLA BLA BLA BLA BLA BLA BLA BLA BLA BLA BLA BLA 
BLA BLA BLA BLA BLA BLA BLA BLA BLA BLA BLA BLA BLA BLA BLA BLA BLA BLA BLA BLA 
BLA BLA BLA BLA BLA BLA BLA BLA BLA BLA BLA BLA BLA BLA BLA BLA BLA BLA BLA BLA 
BLA BLA BLA BLA BLA BLA BLA BLA BLA BLA BLA BLA BLA BLA BLA BLA BLA BLA BLA BLA 
BLA BLA BLA BLA BLA BLA BLA BLA BLA BLA BLA BLA BLA BLA BLA BLA BLA BLA BLA BLA 
BLA BLA BLA BLA BLA BLA BLA BLA BLA BLA BLA BLA BLA BLA BLA BLA BLA BLA BLA BLA 
BLA BLA BLA BLA BLA BLA BLA BLA BLA BLA BLA BLA BLA BLA BLA BLA BLA BLA BLA BLA 
BLA BLA BLA BLA BLA BLA BLA BLA BLA BLA BLA BLA BLA BLA BLA BLA BLA BLA BLA BLA 
BLA BLA BLA BLA BLA BLA BLA BLA BLA BLA BLA BLA BLA BLA BLA BLA BLA BLA BLA BLA 
BLA BLA BLA BLA BLA BLA BLA BLA BLA BLA BLA BLA BLA BLA BLA BLA BLA BLA BLA BLA 
BLA BLA BLA BLA BLA BLA BLA BLA BLA BLA BLA BLA BLA BLA BLA BLA BLA BLA BLA BLA 
BLA BLA BLA BLA BLA BLA BLA BLA BLA BLA BLA BLA BLA BLA BLA BLA BLA BLA BLA BLA 
BLA BLA BLA BLA BLA BLA BLA BLA BLA BLA BLA BLA BLA BLA BLA BLA BLA BLA BLA BLA 
BLA BLA BLA BLA BLA BLA BLA BLA BLA BLA BLA BLA BLA BLA BLA BLA BLA BLA BLA BLA 
BLA BLA BLA BLA BLA BLA BLA BLA BLA BLA BLA BLA BLA BLA BLA BLA BLA BLA BLA BLA 
BLA BLA BLA BLA BLA BLA BLA BLA BLA BLA BLA BLA BLA BLA BLA BLA BLA BLA BLA BLA 
BLA BLA BLA BLA BLA BLA BLA BLA BLA BLA BLA BLA BLA BLA BLA BLA BLA BLA BLA BLA 
BLA BLA BLA BLA BLA BLA BLA BLA BLA BLA BLA BLA BLA BLA BLA BLA BLA BLA BLA BLA 
BLA BLA BLA BLA BLA BLA BLA BLA BLA BLA BLA BLA BLA BLA BLA BLA BLA BLA BLA BLA 
BLA BLA BLA BLA BLA BLA BLA BLA BLA BLA BLA BLA BLA BLA BLA BLA BLA BLA BLA BLA 
BLA BLA BLA BLA BLA BLA BLA BLA BLA BLA BLA BLA BLA BLA BLA BLA BLA BLA BLA BLA 
BLA BLA BLA BLA BLA BLA BLA BLA BLA BLA BLA BLA BLA BLA BLA BLA BLA BLA BLA BLA 
BLA BLA BLA BLA BLA BLA BLA BLA BLA BLA BLA BLA BLA BLA BLA BLA BLA BLA BLA BLA 
BLA BLA BLA BLA BLA BLA BLA BLA BLA BLA BLA BLA BLA BLA BLA BLA BLA BLA BLA BLA 
BLA BLA BLA BLA BLA BLA BLA BLA BLA BLA BLA BLA BLA BLA BLA BLA BLA BLA BLA BLA 
BLA BLA BLA BLA BLA BLA BLA BLA BLA BLA BLA BLA BLA BLA BLA BLA BLA BLA BLA BLA 
BLA BLA BLA BLA BLA BLA BLA BLA BLA BLA BLA BLA BLA BLA BLA BLA BLA BLA BLA BLA 
BLA BLA BLA BLA BLA BLA BLA BLA BLA BLA BLA BLA BLA BLA BLA BLA BLA BLA BLA BLA 
BLA BLA BLA BLA BLA BLA BLA BLA BLA BLA BLA BLA BLA BLA BLA BLA BLA BLA BLA BLA 
BLA BLA BLA BLA BLA BLA BLA BLA BLA BLA BLA BLA BLA BLA BLA BLA BLA BLA BLA BLA 
BLA BLA BLA BLA BLA BLA BLA BLA BLA BLA BLA BLA BLA BLA BLA BLA BLA BLA BLA BLA 
BLA BLA BLA BLA BLA BLA BLA BLA BLA BLA BLA BLA BLA BLA BLA BLA BLA BLA BLA BLA 
BLA BLA BLA BLA BLA BLA BLA BLA BLA BLA BLA BLA BLA BLA BLA BLA BLA BLA BLA BLA 
BLA BLA BLA BLA BLA BLA BLA BLA BLA BLA BLA BLA BLA BLA BLA BLA BLA BLA BLA BLA 
BLA BLA BLA BLA BLA BLA BLA BLA BLA BLA BLA BLA BLA BLA BLA BLA BLA BLA BLA BLA 
BLA BLA BLA BLA BLA BLA BLA BLA BLA BLA BLA BLA BLA BLA BLA BLA BLA BLA BLA BLA 
BLA BLA BLA BLA BLA BLA BLA BLA BLA BLA BLA BLA BLA BLA BLA BLA BLA BLA BLA BLA 
BLA BLA BLA BLA BLA BLA BLA BLA BLA BLA BLA BLA BLA BLA BLA BLA BLA BLA BLA BLA 
BLA BLA BLA BLA BLA BLA BLA BLA BLA BLA BLA BLA BLA BLA BLA BLA BLA BLA BLA BLA 
BLA BLA BLA BLA BLA BLA BLA BLA BLA BLA BLA BLA BLA BLA BLA BLA BLA BLA BLA BLA 
BLA BLA BLA BLA BLA BLA BLA BLA BLA BLA BLA BLA BLA BLA BLA BLA BLA BLA BLA BLA 
BLA BLA BLA BLA BLA BLA BLA BLA BLA BLA BLA BLA BLA BLA BLA BLA BLA BLA BLA BLA 
BLA BLA BLA BLA BLA BLA BLA BLA BLA BLA BLA BLA BLA BLA BLA BLA BLA BLA BLA BLA 
BLA BLA BLA BLA BLA BLA BLA BLA BLA BLA BLA BLA BLA BLA BLA BLA BLA BLA BLA BLA 
BLA BLA BLA BLA BLA BLA BLA BLA BLA BLA BLA BLA BLA BLA BLA BLA BLA BLA BLA BLA 
BLA BLA BLA BLA BLA BLA BLA BLA BLA BLA BLA BLA BLA BLA BLA BLA BLA BLA BLA BLA 
BLA BLA 
%FLAG JOIN_ARRAY                                                                
%FORMAT(10I8)                                                                   
       0       0       0       0       0       0       0       0       0       0
       0       0       0       0       0       0       0       0       0       0
       0       0       0       0       0       0       0       0       0       0
       0       0       0       0       0       0       0       0       0       0
       0       0       0       0       0       0       0       0       0       0
       0       0       0       0       0       0       0       0       0       0
       0       0       0       0       0       0       0       0       0       0
       0       0       0       0       0       0       0       0       0       0
       0       0       0       0       0       0       0       0       0       0
       0       0       0       0       0       0       0       0       0       0
       0       0       0       0       0       0       0       0       0       0
       0       0       0       0       0       0       0       0       0       0
       0       0       0       0       0       0       0       0       0       0
       0       0       0       0       0       0       0       0       0       0
       0       0       0       0       0       0       0       0       0       0
       0       0       0       0       0       0       0       0       0       0
       0       0       0       0       0       0       0       0       0       0
       0       0       0       0       0       0       0       0       0       0
       0       0       0       0       0       0       0       0       0       0
       0       0       0       0       0       0       0       0       0       0
       0       0       0       0       0       0       0       0       0       0
       0       0       0       0       0       0       0       0       0       0
       0       0       0       0       0       0       0       0       0       0
       0       0       0       0       0       0       0       0       0       0
       0       0       0       0       0       0       0       0       0       0
       0       0       0       0       0       0       0       0       0       0
       0       0       0       0       0       0       0       0       0       0
       0       0       0       0       0       0       0       0       0       0
       0       0       0       0       0       0       0       0       0       0
       0       0       0       0       0       0       0       0       0       0
       0       0       0       0       0       0       0       0       0       0
       0       0       0       0       0       0       0       0       0       0
       0       0       0       0       0       0       0       0       0       0
       0       0       0       0       0       0       0       0       0       0
       0       0       0       0       0       0       0       0       0       0
       0       0       0       0       0       0       0       0       0       0
       0       0       0       0       0       0       0       0       0       0
       0       0       0       0       0       0       0       0       0       0
       0       0       0       0       0       0       0       0       0       0
       0       0       0       0       0       0       0       0       0       0
       0       0       0       0       0       0       0       0       0       0
       0       0       0       0       0       0       0       0       0       0
       0       0       0       0       0       0       0       0       0       0
       0       0       0       0       0       0       0       0       0       0
       0       0       0       0       0       0       0       0       0       0
       0       0       0       0       0       0       0       0       0       0
       0       0       0       0       0       0       0       0       0       0
       0       0       0       0       0       0       0       0       0       0
       0       0       0       0       0       0       0       0       0       0
       0       0       0       0       0       0       0       0       0       0
       0       0       0       0       0       0       0       0       0       0
       0       0       0       0       0       0       0       0       0       0
       0       0       0       0       0       0       0       0       0       0
       0       0       0       0       0       0       0       0       0       0
       0       0       0       0       0       0       0       0       0       0
       0       0       0       0       0       0       0       0       0       0
       0       0       0       0       0       0       0       0       0       0
       0       0       0       0       0       0       0       0       0       0
       0       0       0       0       0       0       0       0       0       0
       0       0       0       0       0       0       0       0       0       0
       0       0       0       0       0       0       0       0       0       0
       0       0       0       0       0       0       0       0       0       0
       0       0       0       0       0       0       0       0       0       0
       0       0       0       0       0       0       0       0       0       0
       0       0       0       0       0       0       0       0       0       0
       0       0       0       0       0       0       0       0       0       0
       0       0       0       0       0       0       0       0       0       0
       0       0       0       0       0       0       0       0       0       0
       0       0       0       0       0       0       0       0       0       0
       0       0       0       0       0       0       0       0       0       0
       0       0       0       0       0       0       0       0       0       0
       0       0       0       0       0       0       0       0       0       0
       0       0       0       0       0       0       0       0       0       0
       0       0       0       0       0       0       0       0       0       0
       0       0       0       0       0       0       0       0       0       0
       0       0       0       0       0       0       0       0       0       0
       0       0       0       0       0       0       0       0       0       0
       0       0       0       0       0       0       0       0       0       0
       0       0       0       0       0       0       0       0       0       0
       0       0       0       0       0       0       0       0       0       0
       0       0       0       0       0       0       0       0       0       0
       0       0       0       0       0       0       0       0       0       0
       0       0       0       0       0       0       0       0       0       0
       0       0       0       0       0       0       0       0       0       0
       0       0       0       0       0       0       0       0       0       0
       0       0       0       0       0       0       0       0       0       0
       0       0       0       0       0       0       0       0       0       0
       0       0       0       0       0       0       0       0       0       0
       0       0       0       0       0       0       0       0       0       0
       0       0       0       0       0       0       0       0       0       0
       0       0       0       0       0       0       0       0       0       0
       0       0       0       0       0       0       0       0       0       0
       0       0       0       0       0       0       0       0       0       0
       0       0       0       0       0       0       0       0       0       0
       0       0       0       0       0       0       0       0       0       0
       0       0       0       0       0       0       0       0       0       0
       0       0       0       0       0       0       0       0       0       0
       0       0       0       0       0       0       0       0       0       0
       0       0       0       0       0       0       0       0       0       0
       0       0       0       0       0       0       0       0       0       0
       0       0       0       0       0       0       0       0       0       0
       0       0       0       0       0       0       0       0       0       0
       0       0       0       0       0       0       0       0       0       0
       0       0       0       0       0       0       0       0       0       0
       0       0       0       0       0       0       0       0       0       0
       0       0       0       0       0       0       0       0       0       0
       0       0       0       0       0       0       0       0       0       0
       0       0       0       0       0       0       0       0       0       0
       0       0       0       0       0       0       0       0       0       0
       0       0       0       0       0       0       0       0       0       0
       0       0       0       0       0       0       0       0       0       0
       0       0       0       0       0       0       0       0       0       0
       0       0       0       0       0       0       0       0       0       0
       0       0       0       0       0       0       0       0       0       0
       0       0       0       0       0       0       0       0       0       0
       0       0       0       0       0       0       0       0       0       0
       0       0       0       0       0       0       0       0       0       0
       0       0       0       0       0       0       0       0       0       0
       0       0       0       0       0       0       0       0       0       0
       0       0       0       0       0       0       0       0       0       0
       0       0       0       0       0       0       0       0       0       0
       0       0       0       0       0       0       0       0       0       0
       0       0       0       0       0       0       0       0       0       0
       0       0       0       0       0       0       0       0       0       0
       0       0       0       0       0       0       0       0       0       0
       0       0       0       0       0       0       0       0       0       0
       0       0       0       0       0       0       0       0       0       0
       0       0       0       0       0       0       0       0       0       0
       0       0       0       0       0       0       0       0       0       0
       0       0       0       0       0       0       0       0       0       0
       0       0       0       0       0       0       0       0       0       0
       0       0       0       0       0       0       0       0       0       0
       0       0       0       0       0       0       0       0       0       0
       0       0       0       0       0       0       0       0       0       0
       0       0       0       0       0       0       0       0       0       0
       0       0       0       0       0       0       0       0       0       0
       0       0       0       0       0       0       0       0       0       0
       0       0       0       0       0       0       0       0       0       0
       0       0       0       0       0       0       0       0       0       0
       0       0       0       0       0       0       0       0       0       0
       0       0       0       0       0       0       0       0       0       0
       0       0       0       0       0       0       0       0       0       0
       0       0       0       0       0       0       0       0       0       0
       0       0       0       0       0       0       0       0       0       0
       0       0       0       0       0       0       0       0       0       0
       0       0       0       0       0       0       0       0       0       0
       0       0       0       0       0       0       0       0       0       0
       0       0       0       0       0       0       0       0       0       0
       0       0       0       0       0       0       0       0       0       0
       0       0       0       0       0       0       0       0       0       0
       0       0       0       0       0       0       0       0       0       0
       0       0       0       0       0       0       0       0       0       0
       0       0       0       0       0       0       0       0       0       0
       0       0       0       0       0       0       0       0       0       0
       0       0       0       0       0       0       0       0       0       0
       0       0       0       0       0       0       0       0       0       0
       0       0       0       0       0       0       0       0       0       0
       0       0       0       0       0       0       0       0       0       0
       0       0       0       0       0       0       0       0       0       0
       0       0       0       0       0       0       0       0       0       0
       0       0       0       0       0       0       0       0       0       0
       0       0       0       0       0       0       0       0       0       0
       0       0       0       0       0       0       0       0       0       0
       0       0       0       0       0       0       0       0       0       0
       0       0       0       0       0       0       0       0       0       0
       0       0       0       0       0       0       0       0       0       0
       0       0       0       0       0       0       0       0       0       0
       0       0       0       0       0       0       0       0       0       0
       0       0       0       0       0       0       0       0       0       0
       0       0       0       0       0       0       0       0       0       0
       0       0       0       0       0       0       0       0       0       0
       0       0       0       0       0       0       0       0       0       0
       0       0       0       0       0       0       0       0       0       0
       0       0       0       0       0       0       0       0       0       0
       0       0       0       0       0       0       0       0       0       0
       0       0       0       0       0       0       0       0       0       0
       0       0       0       0       0       0       0       0       0       0
       0       0       0       0       0       0       0       0       0       0
       0       0       0       0       0       0       0       0       0       0
       0       0       0       0       0       0       0       0       0       0
       0       0       0       0       0       0       0       0       0       0
       0       0       0       0       0       0       0       0       0       0
       0       0       0       0       0       0       0       0       0       0
       0       0       0       0       0       0       0       0       0       0
       0       0       0       0       0       0       0       0       0       0
       0       0       0       0       0       0       0       0       0       0
       0       0       0       0       0       0       0       0       0       0
       0       0       0       0       0       0       0       0       0       0
       0       0       0       0       0       0       0       0       0       0
       0       0       0       0       0       0       0       0       0       0
       0       0       0       0       0       0       0       0       0       0
       0       0       0       0       0       0       0       0       0       0
       0       0       0       0       0       0       0       0       0       0
       0       0       0       0       0       0       0       0       0       0
       0       0       0       0       0       0       0       0       0       0
       0       0       0       0       0       0       0       0       0       0
       0       0       0       0       0       0       0       0       0       0
       0       0       0       0       0       0       0       0       0       0
       0       0       0       0       0       0       0       0       0       0
       0       0       0       0       0       0       0       0       0       0
       0       0       0       0       0       0       0       0       0       0
       0       0       0       0       0       0       0       0       0       0
       0       0       0       0       0       0       0       0       0       0
       0       0       0       0       0       0       0       0       0       0
       0       0       0       0       0       0       0       0       0       0
       0       0       0       0       0       0       0       0       0       0
       0       0       0       0       0       0       0       0       0       0
       0       0       0       0       0       0       0       0       0       0
       0       0       0       0       0       0       0       0       0       0
       0       0       0       0       0       0       0       0       0       0
       0       0       0       0       0       0       0       0       0       0
       0       0       0       0       0       0       0       0       0       0
       0       0       0       0       0       0       0       0       0       0
       0       0       0       0       0       0       0       0       0       0
       0       0       0       0       0       0       0       0       0       0
       0       0       0       0       0       0       0       0       0       0
       0       0       0       0       0       0       0       0       0       0
       0       0       0       0       0       0       0       0       0       0
       0       0       0       0       0       0       0       0       0       0
       0       0       0       0       0       0       0       0       0       0
       0       0       0       0       0       0       0       0       0       0
       0       0       0       0       0       0       0       0       0       0
       0       0       0       0       0       0       0       0       0       0
       0       0       0       0       0       0       0       0       0       0
       0       0       0       0       0       0       0       0       0       0
       0       0       0       0       0       0       0       0       0       0
       0       0       0       0       0       0       0       0       0       0
       0       0       0       0       0       0       0       0       0       0
       0       0       0       0       0       0       0       0       0       0
       0       0       0       0       0       0       0       0       0       0
       0       0       0       0       0       0       0       0       0       0
       0       0       0       0       0       0       0       0       0       0
       0       0       0       0       0       0       0       0       0       0
       0       0       0       0       0       0       0       0       0       0
       0       0       0       0       0       0       0       0       0       0
       0       0       0       0       0       0       0       0       0       0
       0       0       0       0       0       0       0       0       0       0
       0       0       0       0       0       0       0       0       0       0
       0       0       0       0       0       0       0       0       0       0
       0       0       0       0       0       0       0       0       0       0
       0       0       0       0       0       0       0       0       0       0
       0       0       0       0       0       0       0       0       0       0
       0       0       0       0       0       0       0       0       0       0
       0       0       0       0       0       0       0       0       0       0
       0       0       0       0       0       0       0       0       0       0
       0       0       0       0       0       0       0       0       0       0
       0       0       0       0       0       0       0       0       0       0
       0       0       0       0       0       0       0       0       0       0
       0       0       0       0       0       0       0       0       0       0
       0       0       0       0       0       0       0       0       0       0
       0       0       0       0       0       0       0       0       0       0
       0       0       0       0       0       0       0       0       0       0
       0       0       0       0       0       0       0       0       0       0
       0       0       0       0       0       0       0       0       0       0
       0       0       0       0       0       0       0       0       0       0
       0       0       0       0       0       0       0       0       0       0
       0       0       0       0       0       0       0       0       0       0
       0       0       0       0       0       0       0       0       0       0
       0       0       0       0       0       0       0       0       0       0
       0       0       0       0       0       0       0       0       0       0
       0       0       0       0       0       0       0       0       0       0
       0       0       0       0       0       0       0       0       0       0
       0       0       0       0       0       0       0       0       0       0
       0       0       0       0       0       0       0       0       0       0
       0       0       0       0       0       0       0       0       0       0
       0       0       0       0       0       0       0       0       0       0
       0       0       0       0       0       0       0       0       0       0
       0       0       0       0       0       0       0       0       0       0
       0       0       0       0       0       0       0       0       0       0
       0       0       0       0       0       0       0       0       0       0
       0       0       0       0       0       0       0       0       0       0
       0       0       0       0       0       0       0       0       0       0
       0       0       0       0       0       0       0       0       0       0
       0       0       0       0       0       0       0       0       0       0
       0       0       0       0       0       0       0       0       0       0
       0       0       0       0       0       0       0       0       0       0
       0       0       0       0       0       0       0       0       0       0
       0       0       0       0       0       0       0       0       0       0
       0       0       0       0       0       0       0       0       0       0
       0       0       0       0       0       0       0       0       0       0
       0       0       0       0       0       0       0       0       0       0
       0       0       0       0       0       0       0       0       0       0
       0       0       0       0       0       0       0       0       0       0
       0       0       0       0       0       0       0       0       0       0
       0       0       0       0       0       0       0       0       0       0
       0       0       0       0       0       0       0       0       0       0
       0       0       0       0       0       0       0       0       0       0
       0       0       0       0       0       0       0       0       0       0
       0       0       0       0       0       0       0       0       0       0
       0       0       0       0       0       0       0       0       0       0
       0       0       0       0       0       0       0       0       0       0
       0       0       0       0       0       0       0       0       0       0
       0       0       0       0       0       0       0       0       0       0
       0       0       0       0       0       0       0       0       0       0
       0       0       0       0       0       0       0       0       0       0
       0       0       0       0       0       0       0       0       0       0
       0       0       0       0       0       0       0       0       0       0
       0       0       0       0       0       0       0       0       0       0
       0       0       0       0       0       0       0       0       0       0
       0       0       0       0       0       0       0       0       0       0
       0       0       0       0       0       0       0       0       0       0
       0       0       0       0       0       0       0       0       0       0
       0       0       0       0       0       0       0       0       0       0
       0       0       0       0       0       0       0       0       0       0
       0       0       0       0       0       0       0       0       0       0
       0       0       0       0       0       0       0       0       0       0
       0       0       0       0       0       0       0       0       0       0
       0       0       0       0       0       0       0       0       0       0
       0       0       0       0       0       0       0       0       0       0
       0       0       0       0       0       0       0       0       0       0
       0       0       0       0       0       0       0       0       0       0
       0       0       0       0       0       0       0       0       0       0
       0       0       0       0       0       0       0       0       0       0
       0       0       0       0       0       0       0       0       0       0
       0       0       0       0       0       0       0       0       0       0
       0       0       0       0       0       0       0       0       0       0
       0       0       0       0       0       0       0       0       0       0
       0       0       0       0       0       0       0       0       0       0
       0       0       0       0       0       0       0       0       0       0
       0       0       0       0       0       0       0       0       0       0
       0       0       0       0       0       0       0       0       0       0
       0       0       0       0       0       0       0       0       0       0
       0       0       0       0       0       0       0       0       0       0
       0       0       0       0       0       0       0       0       0       0
       0       0       0       0       0       0       0       0       0       0
       0       0       0       0       0       0       0       0       0       0
       0       0       0       0       0       0       0       0       0       0
       0       0       0       0       0       0       0       0       0       0
       0       0       0       0       0       0       0       0       0       0
       0       0       0       0       0       0       0       0       0       0
       0       0       0       0       0       0       0       0       0       0
       0       0       0       0       0       0       0       0       0       0
       0       0       0       0       0       0       0       0       0       0
       0       0       0       0       0       0       0       0       0       0
       0       0       0       0       0       0       0       0       0       0
       0       0       0       0       0       0       0       0       0       0
       0       0       0       0       0       0       0       0       0       0
       0       0       0       0       0       0       0       0       0       0
       0       0       0       0       0       0       0       0       0       0
       0       0       0       0       0       0       0       0       0       0
       0       0       0       0       0       0       0       0       0       0
       0       0       0       0       0       0       0       0       0       0
       0       0       0       0       0       0       0       0       0       0
       0       0       0       0       0       0       0       0       0       0
       0       0       0       0       0       0       0       0       0       0
       0       0       0       0       0       0       0       0       0       0
       0       0       0       0       0       0       0       0       0       0
       0       0       0       0       0       0       0       0       0       0
       0       0       0       0       0       0       0       0       0       0
       0       0       0       0       0       0       0       0       0       0
       0       0       0       0       0       0       0       0       0       0
       0       0       0       0       0       0       0       0       0       0
       0       0       0       0       0       0       0       0       0       0
       0       0       0       0       0       0       0       0       0       0
       0       0       0       0       0       0       0       0       0       0
       0       0       0       0       0       0       0       0       0       0
       0       0       0       0       0       0       0       0       0       0
       0       0       0       0       0       0       0       0       0       0
       0       0       0       0       0       0       0       0       0       0
       0       0       0       0       0       0       0       0       0       0
       0       0       0       0       0       0       0       0       0       0
       0       0       0       0       0       0       0       0       0       0
       0       0       0       0       0       0       0       0       0       0
       0       0       0       0       0       0       0       0       0       0
       0       0       0       0       0       0       0       0       0       0
       0       0       0       0       0       0       0       0       0       0
       0       0       0       0       0       0       0       0       0       0
       0       0       0       0       0       0       0       0       0       0
       0       0       0       0       0       0       0       0       0       0
       0       0       0       0       0       0       0       0       0       0
       0       0       0       0       0       0       0       0       0       0
       0       0       0       0       0       0       0       0       0       0
       0       0       0       0       0       0       0       0       0       0
       0       0       0       0       0       0       0       0       0       0
       0       0       0       0       0       0       0       0       0       0
       0       0       0       0       0       0       0       0       0       0
       0       0       0       0       0       0       0       0       0       0
       0       0       0       0       0       0       0       0       0       0
       0       0       0       0       0       0       0       0       0       0
       0       0       0       0       0       0       0       0       0       0
       0       0       0       0       0       0       0       0       0       0
       0       0       0       0       0       0       0       0       0       0
       0       0       0       0       0       0       0       0       0       0
       0       0       0       0       0       0       0       0       0       0
       0       0       0       0       0       0       0       0       0       0
       0       0       0       0       0       0       0       0       0       0
       0       0       0       0       0       0       0       0       0       0
       0       0       0       0       0       0       0       0       0       0
       0       0       0       0       0       0       0       0       0       0
       0       0       0       0       0       0       0       0       0       0
       0       0       0       0       0       0       0       0       0       0
       0       0       0       0       0       0       0       0       0       0
       0       0       0       0       0       0       0       0       0       0
       0       0       0       0       0       0       0       0       0       0
       0       0       0       0       0       0       0       0       0       0
       0       0       0       0       0       0       0       0       0       0
       0       0       0       0       0       0       0       0       0       0
       0       0       0       0       0       0       0       0       0       0
       0       0       0       0       0       0       0       0       0       0
       0       0       0       0       0       0       0       0       0       0
       0       0       0       0       0       0       0       0       0       0
       0       0       0       0       0       0       0       0       0       0
       0       0       0       0       0       0       0       0       0       0
       0       0       0       0       0       0       0       0       0       0
       0       0       0       0       0       0       0       0       0       0
       0       0       0       0       0       0       0       0       0       0
       0       0       0       0       0       0       0       0       0       0
       0       0       0       0       0       0       0       0       0       0
       0       0       0       0       0       0       0       0       0       0
       0       0       0       0       0       0       0       0       0       0
       0       0       0       0       0       0       0       0       0       0
       0       0       0       0       0       0       0       0       0       0
       0       0       0       0       0       0       0       0       0       0
       0       0       0       0       0       0       0       0       0       0
       0       0       0       0       0       0       0       0       0       0
       0       0       0       0       0       0       0       0       0       0
       0       0       0       0       0       0       0       0       0       0
       0       0       0       0       0       0       0       0       0       0
       0       0       0       0       0       0       0       0       0       0
       0       0       0       0       0       0       0       0       0       0
       0       0       0       0       0       0       0       0       0       0
       0       0       0       0       0       0       0       0       0       0
       0       0       0       0       0       0       0       0       0       0
       0       0       0       0       0       0       0       0       0       0
       0       0       0       0       0       0       0       0       0       0
       0       0       0       0       0       0       0       0       0       0
       0       0       0       0       0       0       0       0       0       0
       0       0       0       0       0       0       0       0       0       0
       0       0       0       0       0       0       0       0       0       0
       0       0       0       0       0       0       0       0       0       0
       0       0       0       0       0       0       0       0       0       0
       0       0       0       0       0       0       0       0       0       0
       0       0       0       0       0       0       0       0       0       0
       0       0       0       0       0       0       0       0       0       0
       0       0       0       0       0       0       0       0       0       0
       0       0       0       0       0       0       0       0       0       0
       0       0       0       0       0       0       0       0       0       0
       0       0       0       0       0       0       0       0       0       0
       0       0       0       0       0       0       0       0       0       0
       0       0       0       0       0       0       0       0       0       0
       0       0       0       0       0       0       0       0       0       0
       0       0       0       0       0       0       0       0       0       0
       0       0       0       0       0       0       0       0       0       0
       0       0       0       0       0       0       0       0       0       0
       0       0       0       0       0       0       0       0       0       0
       0       0       0       0       0       0       0       0       0       0
       0       0       0       0       0       0       0       0       0       0
       0       0       0       0       0       0       0       0       0       0
       0       0       0       0       0       0       0       0       0       0
       0       0       0       0       0       0       0       0       0       0
       0       0       0       0       0       0       0       0       0       0
       0       0       0       0       0       0       0       0       0       0
       0       0       0       0       0       0       0       0       0       0
       0       0       0       0       0       0       0       0       0       0
       0       0       0       0       0       0       0       0       0       0
       0       0       0       0       0       0       0       0       0       0
       0       0       0       0       0       0       0       0       0       0
       0       0       0       0       0       0       0       0       0       0
       0       0       0       0       0       0       0       0       0       0
       0       0       0       0       0       0       0       0       0       0
       0       0       0       0       0       0       0       0       0       0
       0       0       0       0       0       0       0       0       0       0
       0       0       0       0       0       0       0       0       0       0
       0       0       0       0       0       0       0       0       0       0
       0       0       0       0       0       0       0       0       0       0
       0       0       0       0       0       0       0       0       0       0
       0       0       0       0       0       0       0       0       0       0
       0       0       0       0       0       0       0       0       0       0
       0       0       0       0       0       0       0       0       0       0
       0       0       0       0       0       0       0       0       0       0
       0       0       0       0       0       0       0       0       0       0
       0       0       0       0       0       0       0       0       0       0
       0       0       0       0       0       0       0       0       0       0
       0       0       0       0       0       0       0       0       0       0
       0       0       0       0       0       0       0       0       0       0
       0       0       0       0       0       0       0       0       0       0
       0       0       0       0       0       0       0       0       0       0
       0       0       0       0       0       0       0       0       0       0
       0       0       0       0       0       0       0       0       0       0
       0       0       0       0       0       0       0       0       0       0
       0       0       0       0       0       0       0       0       0       0
       0       0       0       0       0       0       0       0       0       0
       0       0       0       0       0       0       0       0       0       0
       0       0       0       0       0       0       0       0       0       0
       0       0       0       0       0       0       0       0       0       0
       0       0       0       0       0       0       0       0       0       0
       0       0       0       0       0       0       0       0       0       0
       0       0       0       0       0       0       0       0       0       0
       0       0       0       0       0       0       0       0       0       0
       0       0       0       0       0       0       0       0       0       0
       0       0       0       0       0       0       0       0       0       0
       0       0       0       0       0       0       0       0       0       0
       0       0       0       0       0       0       0       0       0       0
       0       0       0       0       0       0       0       0       0       0
       0       0       0       0       0       0       0       0       0       0
       0       0       0       0       0       0       0       0       0       0
       0       0       0       0       0       0       0       0       0       0
       0       0       0       0       0       0       0       0       0       0
       0       0       0       0       0       0       0       0       0       0
       0       0       0       0       0       0       0       0       0       0
       0       0       0       0       0       0       0       0       0       0
       0       0       0       0       0       0       0       0       0       0
       0       0       0       0       0       0       0       0       0       0
       0       0       0       0       0       0       0       0       0       0
       0       0       0       0       0       0       0       0       0       0
       0       0       0       0       0       0       0       0       0       0
       0       0       0       0       0       0       0       0       0       0
       0       0       0       0       0       0       0       0       0       0
       0       0       0       0       0       0       0       0       0       0
       0       0       0       0       0       0       0       0       0       0
       0       0       0       0       0       0       0       0       0       0
       0       0       0       0       0       0       0       0       0       0
       0       0       0       0       0       0       0       0       0       0
       0       0       0       0       0       0       0       0       0       0
       0       0       0       0       0       0       0       0       0       0
       0       0       0       0       0       0       0       0       0       0
       0       0       0       0       0       0       0       0       0       0
       0       0       0       0       0       0       0       0       0       0
       0       0       0       0       0       0       0       0       0       0
       0       0       0       0       0       0       0       0       0       0
       0       0       0       0       0       0       0       0       0       0
       0       0       0       0       0       0       0       0       0       0
       0       0       0       0       0       0       0       0       0       0
       0       0       0       0       0       0       0       0       0       0
       0       0       0       0       0       0       0       0       0       0
       0       0       0       0       0       0       0       0       0       0
       0       0       0       0       0       0       0       0       0       0
       0       0       0       0       0       0       0       0       0       0
       0       0       0       0       0       0       0       0       0       0
       0       0       0       0       0       0       0       0       0       0
       0       0       0       0       0       0       0       0       0       0
       0       0       0       0       0       0       0       0       0       0
       0       0       0       0       0       0       0       0       0       0
       0       0       0       0       0       0       0       0       0       0
       0       0       0       0       0       0       0       0       0       0
       0       0       0       0       0       0       0       0       0       0
       0       0       0       0       0       0       0       0       0       0
       0       0       0       0       0       0       0       0       0       0
       0       0       0       0       0       0       0       0       0       0
       0       0       0       0       0       0       0       0       0       0
       0       0       0       0       0       0       0       0       0       0
       0       0       0       0       0       0       0       0       0       0
       0       0       0       0       0       0       0       0       0       0
       0       0       0       0       0       0       0       0       0       0
       0       0       0       0       0       0       0       0       0       0
       0       0       0       0       0       0       0       0       0       0
       0       0       0       0       0       0       0       0       0       0
       0       0       0       0       0       0       0       0       0       0
       0       0       0       0       0       0       0       0       0       0
       0       0       0       0       0       0       0       0       0       0
       0       0       0       0       0       0       0       0       0       0
       0       0       0       0       0       0       0       0       0       0
       0       0       0       0       0       0       0       0       0       0
       0       0       0       0       0       0       0       0       0       0
       0       0       0       0       0       0       0       0       0       0
       0       0       0       0       0       0       0       0       0       0
       0       0       0       0       0       0       0       0       0       0
       0       0       0       0       0       0       0       0       0       0
       0       0       0       0       0       0       0       0       0       0
       0       0       0       0       0       0       0       0       0       0
       0       0       0       0       0       0       0       0       0       0
       0       0       0       0       0       0       0       0       0       0
       0       0       0       0       0       0       0       0       0       0
       0       0       0       0       0       0       0       0       0       0
       0       0       0       0       0       0       0       0       0       0
       0       0       0       0       0       0       0       0       0       0
       0       0       0       0       0       0       0       0       0       0
       0       0       0       0       0       0       0       0       0       0
       0       0       0       0       0       0       0       0       0       0
       0       0       0       0       0       0       0       0       0       0
       0       0       0       0       0       0       0       0       0       0
       0       0       0       0       0       0       0       0       0       0
       0       0       0       0       0       0       0       0       0       0
       0       0       0       0       0       0       0       0       0       0
       0       0       0       0       0       0       0       0       0       0
       0       0       0       0       0       0       0       0       0       0
       0       0       0       0       0       0       0       0       0       0
       0       0       0       0       0       0       0       0       0       0
       0       0       0       0       0       0       0       0       0       0
       0       0       0       0       0       0       0       0       0       0
       0       0       0       0       0       0       0       0       0       0
       0       0       0       0       0       0       0       0       0       0
       0       0       0       0       0       0       0       0       0       0
       0       0       0       0       0       0       0       0       0       0
       0       0       0       0       0       0       0       0       0       0
       0       0       0       0       0       0       0       0       0       0
       0       0       0       0       0       0       0       0       0       0
       0       0       0       0       0       0       0       0       0       0
       0       0       0       0       0       0       0       0       0       0
       0       0       0       0       0       0       0       0       0       0
       0       0       0       0       0       0       0       0       0       0
       0       0       0       0       0       0       0       0       0       0
       0       0       0       0       0       0       0       0       0       0
       0       0       0       0       0       0       0       0       0       0
       0       0       0       0       0       0       0       0       0       0
       0       0       0       0       0       0       0       0       0       0
       0       0       0       0       0       0       0       0       0       0
       0       0       0       0       0       0       0       0       0       0
       0       0       0       0       0       0       0       0       0       0
       0       0       0       0       0       0       0       0       0       0
       0       0       0       0       0       0       0       0       0       0
       0       0       0       0       0       0       0       0       0       0
       0       0       0       0       0       0       0       0       0       0
       0       0       0       0       0       0       0       0       0       0
       0       0       0       0       0       0       0       0       0       0
       0       0       0       0       0       0       0       0       0       0
       0       0       0       0       0       0       0       0       0       0
       0       0       0       0       0       0       0       0       0       0
       0       0       0       0       0       0       0       0       0       0
       0       0       0       0       0       0       0       0       0       0
       0       0       0       0       0       0       0       0       0       0
       0       0       0       0       0       0       0       0       0       0
       0       0       0       0       0       0       0       0       0       0
       0       0       0       0       0       0       0       0       0       0
       0       0       0       0       0       0       0       0       0       0
       0       0       0       0       0       0       0       0       0       0
       0       0       0       0       0       0       0       0       0       0
       0       0       0       0       0       0       0       0       0       0
       0       0       0       0       0       0       0       0       0       0
       0       0       0       0       0       0       0       0       0       0
       0       0       0       0       0       0       0       0       0       0
       0       0       0       0       0       0       0       0       0       0
       0       0       0       0       0       0       0       0       0       0
       0       0       0       0       0       0       0       0       0       0
       0       0       0       0       0       0       0       0       0       0
       0       0       0       0       0       0       0       0       0       0
       0       0       0       0       0       0       0       0       0       0
       0       0       0       0       0       0       0       0       0       0
       0       0       0       0       0       0       0       0       0       0
       0       0       0       0       0       0       0       0       0       0
       0       0       0       0       0       0       0       0       0       0
       0       0       0       0       0       0       0       0       0       0
       0       0       0       0       0       0       0       0       0       0
       0       0       0       0       0       0       0       0       0       0
       0       0       0       0       0       0       0       0       0       0
       0       0       0       0       0       0       0       0       0       0
       0       0       0       0       0       0       0       0       0       0
       0       0       0       0       0       0       0       0       0       0
       0       0       0       0       0       0       0       0       0       0
       0       0       0       0       0       0       0       0       0       0
       0       0       0       0       0       0       0       0       0       0
       0       0       0       0       0       0       0       0       0       0
       0       0       0       0       0       0       0       0       0       0
       0       0       0       0       0       0       0       0       0       0
       0       0       0       0       0       0       0       0       0       0
       0       0       0       0       0       0       0       0       0       0
       0       0       0       0       0       0       0       0       0       0
       0       0       0       0       0       0       0       0       0       0
       0       0       0       0       0       0       0       0       0       0
       0       0       0       0       0       0       0       0       0       0
       0       0       0       0       0       0       0       0       0       0
       0       0       0       0       0       0       0       0       0       0
       0       0       0       0       0       0       0       0       0       0
       0       0       0       0       0       0       0       0       0       0
       0       0       0       0       0       0       0       0       0       0
       0       0       0       0       0       0       0       0       0       0
       0       0       0       0       0       0       0       0       0       0
       0       0       0       0       0       0       0       0       0       0
       0       0       0       0       0       0       0       0       0       0
       0       0       0       0       0       0       0       0       0       0
       0       0       0       0       0       0       0       0       0       0
       0       0       0       0       0       0       0       0       0       0
       0       0       0       0       0       0       0       0       0       0
       0       0       0       0       0       0       0       0       0       0
       0       0       0       0       0       0       0       0       0       0
       0       0       0       0       0       0       0       0       0       0
       0       0       0       0       0       0       0       0       0       0
       0       0       0       0       0       0       0       0       0       0
       0       0       0       0       0       0       0       0       0       0
       0       0       0       0       0       0       0       0       0       0
       0       0       0       0       0       0       0       0       0       0
       0       0       0       0       0       0       0       0       0       0
       0       0       0       0       0       0       0       0       0       0
       0       0       0       0       0       0       0       0       0       0
       0       0       0       0       0       0       0       0       0       0
       0       0       0       0       0       0       0       0       0       0
       0       0       0       0       0       0       0       0       0       0
       0       0       0       0       0       0       0       0       0       0
       0       0       0       0       0       0       0       0       0       0
       0       0       0       0       0       0       0       0       0       0
       0       0       0       0       0       0       0       0       0       0
       0       0       0       0       0       0       0       0       0       0
       0       0       0       0       0       0       0       0       0       0
       0       0       0       0       0       0       0       0       0       0
       0       0       0       0       0       0       0       0       0       0
       0       0       0       0       0       0       0       0       0       0
       0       0       0       0       0       0       0       0       0       0
       0       0       0       0       0       0       0       0       0       0
       0       0       0       0       0       0       0       0       0       0
       0       0       0       0       0       0       0       0       0       0
       0       0       0       0       0       0       0       0       0       0
       0       0       0       0       0       0       0       0       0       0
       0       0       0       0       0       0       0       0       0       0
       0       0       0       0       0       0       0       0       0       0
       0       0       0       0       0       0       0       0       0       0
       0       0       0       0       0       0       0       0       0       0
       0       0       0       0       0       0       0       0       0       0
       0       0       0       0       0       0       0       0       0       0
       0       0       0       0       0       0       0       0       0       0
       0       0       0       0       0       0       0       0       0       0
       0       0       0       0       0       0       0       0       0       0
       0       0       0       0       0       0       0       0       0       0
       0       0       0       0       0       0       0       0       0       0
       0       0       0       0       0       0       0       0       0       0
       0       0       0       0       0       0       0       0       0       0
       0       0       0       0       0       0       0       0       0       0
       0       0       0       0       0       0       0       0       0       0
       0       0       0       0       0       0       0       0       0       0
       0       0       0       0       0       0       0       0       0       0
       0       0       0       0       0       0       0       0       0       0
       0       0       0       0       0       0       0       0       0       0
       0       0       0       0       0       0       0       0       0       0
       0       0       0       0       0       0       0       0       0       0
       0       0       0       0       0       0       0       0       0       0
       0       0       0       0       0       0       0       0       0       0
       0       0       0       0       0       0       0       0       0       0
       0       0       0       0       0       0       0       0       0       0
       0       0       0       0       0       0       0       0       0       0
       0       0       0       0       0       0       0       0       0       0
       0       0       0       0       0       0       0       0       0       0
       0       0       0       0       0       0       0       0       0       0
       0       0       0       0       0       0       0       0       0       0
       0       0       0       0       0       0       0       0       0       0
       0       0       0       0       0       0       0       0       0       0
       0       0       0       0       0       0       0       0       0       0
       0       0       0       0       0       0       0       0       0       0
       0       0       0       0       0       0       0       0       0       0
       0       0       0       0       0       0       0       0       0       0
       0       0       0       0       0       0       0       0       0       0
       0       0       0       0       0       0       0       0       0       0
       0       0       0       0       0       0       0       0       0       0
       0       0       0       0       0       0       0       0       0       0
       0       0       0       0       0       0       0       0       0       0
       0       0       0       0       0       0       0       0       0       0
       0       0       0       0       0       0       0       0       0       0
       0       0       0       0       0       0       0       0       0       0
       0       0       0       0       0       0       0       0       0       0
       0       0       0       0       0       0       0       0       0       0
       0       0       0       0       0       0       0       0       0       0
       0       0       0       0       0       0       0       0       0       0
       0       0       0       0       0       0       0       0       0       0
       0       0       0       0       0       0       0       0       0       0
       0       0       0       0       0       0       0       0       0       0
       0       0       0       0       0       0       0       0       0       0
       0       0       0       0       0       0       0       0       0       0
       0       0       0       0       0       0       0       0       0       0
       0       0       0       0       0       0       0       0       0       0
       0       0       0       0       0       0       0       0       0       0
       0       0       0       0       0       0       0       0       0       0
       0       0       0       0       0       0       0       0       0       0
       0       0       0       0       0       0       0       0       0       0
       0       0       0       0       0       0       0       0       0       0
       0       0       0       0       0       0       0       0       0       0
       0       0       0       0       0       0       0       0       0       0
       0       0       0       0       0       0       0       0       0       0
       0       0       0       0       0       0       0       0       0       0
       0       0       0       0       0       0       0       0       0       0
       0       0       0       0       0       0       0       0       0       0
       0       0       0       0       0       0       0       0       0       0
       0       0       0       0       0       0       0       0       0       0
       0       0       0       0       0       0       0       0       0       0
       0       0       0       0       0       0       0       0       0       0
       0       0       0       0       0       0       0       0       0       0
       0       0       0       0       0       0       0       0       0       0
       0       0       0       0       0       0       0       0       0       0
       0       0       0       0       0       0       0       0       0       0
       0       0       0       0       0       0       0       0       0       0
       0       0       0       0       0       0       0       0       0       0
       0       0       0       0       0       0       0       0       0       0
       0       0       0       0       0       0       0       0       0       0
       0       0       0       0       0       0       0       0       0       0
       0       0       0       0       0       0       0       0       0       0
       0       0       0       0       0       0       0       0       0       0
       0       0       0       0       0       0       0       0       0       0
       0       0       0       0       0       0       0       0       0       0
       0       0       0       0       0       0       0       0       0       0
       0       0       0       0       0       0       0       0       0       0
       0       0       0       0       0       0       0       0       0       0
       0       0       0       0       0       0       0       0       0       0
       0       0       0       0       0       0       0       0       0       0
       0       0       0       0       0       0       0       0       0       0
       0       0       0       0       0       0       0       0       0       0
       0       0       0       0       0       0       0       0       0       0
       0       0       0       0       0       0       0       0       0       0
       0       0       0       0       0       0       0       0       0       0
       0       0       0       0       0       0       0       0       0       0
       0       0       0       0       0       0       0       0       0       0
       0       0       0       0       0       0       0       0       0       0
       0       0       0       0       0       0       0       0       0       0
       0       0       0       0       0       0       0       0       0       0
       0       0       0       0       0       0       0       0       0       0
       0       0       0       0       0       0       0       0       0       0
       0       0       0       0       0       0       0       0       0       0
       0       0       0       0       0       0       0       0       0       0
       0       0       0       0       0       0       0       0       0       0
       0       0       0       0       0       0       0       0       0       0
       0       0       0       0       0       0       0       0       0       0
       0       0       0       0       0       0       0       0       0       0
       0       0       0       0       0       0       0       0       0       0
       0       0       0       0       0       0       0       0       0       0
       0       0       0       0       0       0       0       0       0       0
       0       0       0       0       0       0       0       0       0       0
       0       0       0       0       0       0       0       0       0       0
       0       0       0       0       0       0       0       0       0       0
       0       0       0       0       0       0       0       0       0       0
       0       0       0       0       0       0       0       0       0       0
       0       0       0       0       0       0       0       0       0       0
       0       0       0       0       0       0       0       0       0       0
       0       0       0       0       0       0       0       0       0       0
       0       0       0       0       0       0       0       0       0       0
       0       0       0       0       0       0       0       0       0       0
       0       0       0       0       0       0       0       0       0       0
       0       0       0       0       0       0       0       0       0       0
       0       0       0       0       0       0       0       0       0       0
       0       0       0       0       0       0       0       0       0       0
       0       0       0       0       0       0       0       0       0       0
       0       0       0       0       0       0       0       0       0       0
       0       0       0       0       0       0       0       0       0       0
       0       0       0       0       0       0       0       0       0       0
       0       0       0       0       0       0       0       0       0       0
       0       0       0       0       0       0       0       0       0       0
       0       0       0       0       0       0       0       0       0       0
       0       0       0       0       0       0       0       0       0       0
       0       0       0       0       0       0       0       0       0       0
       0       0       0       0       0       0       0       0       0       0
       0       0       0       0       0       0       0       0       0       0
       0       0       0       0       0       0       0       0       0       0
       0       0       0       0       0       0       0       0       0       0
       0       0       0       0       0       0       0       0       0       0
       0       0       0       0       0       0       0       0       0       0
       0       0       0       0       0       0       0       0       0       0
       0       0       0       0       0       0       0       0       0       0
       0       0       0       0       0       0       0       0       0       0
       0       0       0       0       0       0       0       0       0       0
       0       0       0       0       0       0       0       0       0       0
       0       0       0       0       0       0       0       0       0       0
       0       0       0       0       0       0       0       0       0       0
       0       0       0       0       0       0       0       0       0       0
       0       0       0       0       0       0       0       0       0       0
       0       0       0       0       0       0       0       0       0       0
       0       0       0       0       0       0       0       0       0       0
       0       0       0       0       0       0       0       0       0       0
       0       0       0       0       0       0       0       0       0       0
       0       0       0       0       0       0       0       0       0       0
       0       0       0       0       0       0       0       0       0       0
       0       0       0       0       0       0       0       0       0       0
       0       0       0       0       0       0       0       0       0       0
       0       0       0       0       0       0       0       0       0       0
       0       0       0       0       0       0       0       0       0       0
       0       0       0       0       0       0       0       0       0       0
       0       0       0       0       0       0       0       0       0       0
       0       0       0       0       0       0       0       0       0       0
       0       0       0       0       0       0       0       0       0       0
       0       0       0       0       0       0       0       0       0       0
       0       0       0       0       0       0       0       0       0       0
       0       0       0       0       0       0       0       0       0       0
       0       0       0       0       0       0       0       0       0       0
       0       0       0       0       0       0       0       0       0       0
       0       0       0       0       0       0       0       0       0       0
       0       0       0       0       0       0       0       0       0       0
       0       0       0       0       0       0       0       0       0       0
       0       0       0       0       0       0       0       0       0       0
       0       0       0       0       0       0       0       0       0       0
       0       0       0       0       0       0       0       0       0       0
       0       0       0       0       0       0       0       0       0       0
       0       0       0       0       0       0       0       0       0       0
       0       0       0       0       0       0       0       0       0       0
       0       0       0       0       0       0       0       0       0       0
       0       0       0       0       0       0       0       0       0       0
       0       0       0       0       0       0       0       0       0       0
       0       0       0       0       0       0       0       0       0       0
       0       0       0       0       0       0       0       0       0       0
       0       0       0       0       0       0       0       0       0       0
       0       0       0       0       0       0       0       0       0       0
       0       0       0       0       0       0       0       0       0       0
       0       0       0       0       0       0       0       0       0       0
       0       0
%FLAG IROTAT                                                                    
%FORMAT(10I8)                                                                   
       0       0       0       0       0       0       0       0       0       0
       0       0       0       0       0       0       0       0       0       0
       0       0       0       0       0       0       0       0       0       0
       0       0       0       0       0       0       0       0       0       0
       0       0       0       0       0       0       0       0       0       0
       0       0       0       0       0       0       0       0       0       0
       0       0       0       0       0       0       0       0       0       0
       0       0       0       0       0       0       0       0       0       0
       0       0       0       0       0       0       0       0       0       0
       0       0       0       0       0       0       0       0       0       0
       0       0       0       0       0       0       0       0       0       0
       0       0       0       0       0       0       0       0       0       0
       0       0       0       0       0       0       0       0       0       0
       0       0       0       0       0       0       0       0       0       0
       0       0       0       0       0       0       0       0       0       0
       0       0       0       0       0       0       0       0       0       0
       0       0       0       0       0       0       0       0       0       0
       0       0       0       0       0       0       0       0       0       0
       0       0       0       0       0       0       0       0       0       0
       0       0       0       0       0       0       0       0       0       0
       0       0       0       0       0       0       0       0       0       0
       0       0       0       0       0       0       0       0       0       0
       0       0       0       0       0       0       0       0       0       0
       0       0       0       0       0       0       0       0       0       0
       0       0       0       0       0       0       0       0       0       0
       0       0       0       0       0       0       0       0       0       0
       0       0       0       0       0       0       0       0       0       0
       0       0       0       0       0       0       0       0       0       0
       0       0       0       0       0       0       0       0       0       0
       0       0       0       0       0       0       0       0       0       0
       0       0       0       0       0       0       0       0       0       0
       0       0       0       0       0       0       0       0       0       0
       0       0       0       0       0       0       0       0       0       0
       0       0       0       0       0       0       0       0       0       0
       0       0       0       0       0       0       0       0       0       0
       0       0       0       0       0       0       0       0       0       0
       0       0       0       0       0       0       0       0       0       0
       0       0       0       0       0       0       0       0       0       0
       0       0       0       0       0       0       0       0       0       0
       0       0       0       0       0       0       0       0       0       0
       0       0       0       0       0       0       0       0       0       0
       0       0       0       0       0       0       0       0       0       0
       0       0       0       0       0       0       0       0       0       0
       0       0       0       0       0       0       0       0       0       0
       0       0       0       0       0       0       0       0       0       0
       0       0       0       0       0       0       0       0       0       0
       0       0       0       0       0       0       0       0       0       0
       0       0       0       0       0       0       0       0       0       0
       0       0       0       0       0       0       0       0       0       0
       0       0       0       0       0       0       0       0       0       0
       0       0       0       0       0       0       0       0       0       0
       0       0       0       0       0       0       0       0       0       0
       0       0       0       0       0       0       0       0       0       0
       0       0       0       0       0       0       0       0       0       0
       0       0       0       0       0       0       0       0       0       0
       0       0       0       0       0       0       0       0       0       0
       0       0       0       0       0       0       0       0       0       0
       0       0       0       0       0       0       0       0       0       0
       0       0       0       0       0       0       0       0       0       0
       0       0       0       0       0       0       0       0       0       0
       0       0       0       0       0       0       0       0       0       0
       0       0       0       0       0       0       0       0       0       0
       0       0       0       0       0       0       0       0       0       0
       0       0       0       0       0       0       0       0       0       0
       0       0       0       0       0       0       0       0       0       0
       0       0       0       0       0       0       0       0       0       0
       0       0       0       0       0       0       0       0       0       0
       0       0       0       0       0       0       0       0       0       0
       0       0       0       0       0       0       0       0       0       0
       0       0       0       0       0       0       0       0       0       0
       0       0       0       0       0       0       0       0       0       0
       0       0       0       0       0       0       0       0       0       0
       0       0       0       0       0       0       0       0       0       0
       0       0       0       0       0       0       0       0       0       0
       0       0       0       0       0       0       0       0       0       0
       0       0       0       0       0       0       0       0       0       0
       0       0       0       0       0       0       0       0       0       0
       0       0       0       0       0       0       0       0       0       0
       0       0       0       0       0       0       0       0       0       0
       0       0       0       0       0       0       0       0       0       0
       0       0       0       0       0       0       0       0       0       0
       0       0       0       0       0       0       0       0       0       0
       0       0       0       0       0       0       0       0       0       0
       0       0       0       0       0       0       0       0       0       0
       0       0       0       0       0       0       0       0       0       0
       0       0       0       0       0       0       0       0       0       0
       0       0       0       0       0       0       0       0       0       0
       0       0       0       0       0       0       0       0       0       0
       0       0       0       0       0       0       0       0       0       0
       0       0       0       0       0       0       0       0       0       0
       0       0       0       0       0       0       0       0       0       0
       0       0       0       0       0       0       0       0       0       0
       0       0       0       0       0       0       0       0       0       0
       0       0       0       0       0       0       0       0       0       0
       0       0       0       0       0       0       0       0       0       0
       0       0       0       0       0       0       0       0       0       0
       0       0       0       0       0       0       0       0       0       0
       0       0       0       0       0       0       0       0       0       0
       0       0       0       0       0       0       0       0       0       0
       0       0       0       0       0       0       0       0       0       0
       0       0       0       0       0       0       0       0       0       0
       0       0       0       0       0       0       0       0       0       0
       0       0       0       0       0       0       0       0       0       0
       0       0       0       0       0       0       0       0       0       0
       0       0       0       0       0       0       0       0       0       0
       0       0       0       0       0       0       0       0       0       0
       0       0       0       0       0       0       0       0       0       0
       0       0       0       0       0       0       0       0       0       0
       0       0       0       0       0       0       0       0       0       0
       0       0       0       0       0       0       0       0       0       0
       0       0       0       0       0       0       0       0       0       0
       0       0       0       0       0       0       0       0       0       0
       0       0       0       0       0       0       0       0       0       0
       0       0       0       0       0       0       0       0       0       0
       0       0       0       0       0       0       0       0       0       0
       0       0       0       0       0       0       0       0       0       0
       0       0       0       0       0       0       0       0       0       0
       0       0       0       0       0       0       0       0       0       0
       0       0       0       0       0       0       0       0       0       0
       0       0       0       0       0       0       0       0       0       0
       0       0       0       0       0       0       0       0       0       0
       0       0       0       0       0       0       0       0       0       0
       0       0       0       0       0       0       0       0       0       0
       0       0       0       0       0       0       0       0       0       0
       0       0       0       0       0       0       0       0       0       0
       0       0       0       0       0       0       0       0       0       0
       0       0       0       0       0       0       0       0       0       0
       0       0       0       0       0       0       0       0       0       0
       0       0       0       0       0       0       0       0       0       0
       0       0       0       0       0       0       0       0       0       0
       0       0       0       0       0       0       0       0       0       0
       0       0       0       0       0       0       0       0       0       0
       0       0       0       0       0       0       0       0       0       0
       0       0       0       0       0       0       0       0       0       0
       0       0       0       0       0       0       0       0       0       0
       0       0       0       0       0       0       0       0       0       0
       0       0       0       0       0       0       0       0       0       0
       0       0       0       0       0       0       0       0       0       0
       0       0       0       0       0       0       0       0       0       0
       0       0       0       0       0       0       0       0       0       0
       0       0       0       0       0       0       0       0       0       0
       0       0       0       0       0       0       0       0       0       0
       0       0       0       0       0       0       0       0       0       0
       0       0       0       0       0       0       0       0       0       0
       0       0       0       0       0       0       0       0       0       0
       0       0       0       0       0       0       0       0       0       0
       0       0       0       0       0       0       0       0       0       0
       0       0       0       0       0       0       0       0       0       0
       0       0       0       0       0       0       0       0       0       0
       0       0       0       0       0       0       0       0       0       0
       0       0       0       0       0       0       0       0       0       0
       0       0       0       0       0       0       0       0       0       0
       0       0       0       0       0       0       0       0       0       0
       0       0       0       0       0       0       0       0       0       0
       0       0       0       0       0       0       0       0       0       0
       0       0       0       0       0       0       0       0       0       0
       0       0       0       0       0       0       0       0       0       0
       0       0       0       0       0       0       0       0       0       0
       0       0       0       0       0       0       0       0       0       0
       0       0       0       0       0       0       0       0       0       0
       0       0       0       0       0       0       0       0       0       0
       0       0       0       0       0       0       0       0       0       0
       0       0       0       0       0       0       0       0       0       0
       0       0       0       0       0       0       0       0       0       0
       0       0       0       0       0       0       0       0       0       0
       0       0       0       0       0       0       0       0       0       0
       0       0       0       0       0       0       0       0       0       0
       0       0       0       0       0       0       0       0       0       0
       0       0       0       0       0       0       0       0       0       0
       0       0       0       0       0       0       0       0       0       0
       0       0       0       0       0       0       0       0       0       0
       0       0       0       0       0       0       0       0       0       0
       0       0       0       0       0       0       0       0       0       0
       0       0       0       0       0       0       0       0       0       0
       0       0       0       0       0       0       0       0       0       0
       0       0       0       0       0       0       0       0       0       0
       0       0       0       0       0       0       0       0       0       0
       0       0       0       0       0       0       0       0       0       0
       0       0       0       0       0       0       0       0       0       0
       0       0       0       0       0       0       0       0       0       0
       0       0       0       0       0       0       0       0       0       0
       0       0       0       0       0       0       0       0       0       0
       0       0       0       0       0       0       0       0       0       0
       0       0       0       0       0       0       0       0       0       0
       0       0       0       0       0       0       0       0       0       0
       0       0       0       0       0       0       0       0       0       0
       0       0       0       0       0       0       0       0       0       0
       0       0       0       0       0       0       0       0       0       0
       0       0       0       0       0       0       0       0       0       0
       0       0       0       0       0       0       0       0       0       0
       0       0       0       0       0       0       0       0       0       0
       0       0       0       0       0       0       0       0       0       0
       0       0       0       0       0       0       0       0       0       0
       0       0       0       0       0       0       0       0       0       0
       0       0       0       0       0       0       0       0       0       0
       0       0       0       0       0       0       0       0       0       0
       0       0       0       0       0       0       0       0       0       0
       0       0       0       0       0       0       0       0       0       0
       0       0       0       0       0       0       0       0       0       0
       0       0       0       0       0       0       0       0       0       0
       0       0       0       0       0       0       0       0       0       0
       0       0       0       0       0       0       0       0       0       0
       0       0       0       0       0       0       0       0       0       0
       0       0       0       0       0       0       0       0       0       0
       0       0       0       0       0       0       0       0       0       0
       0       0       0       0       0       0       0       0       0       0
       0       0       0       0       0       0       0       0       0       0
       0       0       0       0       0       0       0       0       0       0
       0       0       0       0       0       0       0       0       0       0
       0       0       0       0       0       0       0       0       0       0
       0       0       0       0       0       0       0       0       0       0
       0       0       0       0       0       0       0       0       0       0
       0       0       0       0       0       0       0       0       0       0
       0       0       0       0       0       0       0       0       0       0
       0       0       0       0       0       0       0       0       0       0
       0       0       0       0       0       0       0       0       0       0
       0       0       0       0       0       0       0       0       0       0
       0       0       0       0       0       0       0       0       0       0
       0       0       0       0       0       0       0       0       0       0
       0       0       0       0       0       0       0       0       0       0
       0       0       0       0       0       0       0       0       0       0
       0       0       0       0       0       0       0       0       0       0
       0       0       0       0       0       0       0       0       0       0
       0       0       0       0       0       0       0       0       0       0
       0       0       0       0       0       0       0       0       0       0
       0       0       0       0       0       0       0       0       0       0
       0       0       0       0       0       0       0       0       0       0
       0       0       0       0       0       0       0       0       0       0
       0       0       0       0       0       0       0       0       0       0
       0       0       0       0       0       0       0       0       0       0
       0       0       0       0       0       0       0       0       0       0
       0       0       0       0       0       0       0       0       0       0
       0       0       0       0       0       0       0       0       0       0
       0       0       0       0       0       0       0       0       0       0
       0       0       0       0       0       0       0       0       0       0
       0       0       0       0       0       0       0       0       0       0
       0       0       0       0       0       0       0       0       0       0
       0       0       0       0       0       0       0       0       0       0
       0       0       0       0       0       0       0       0       0       0
       0       0       0       0       0       0       0       0       0       0
       0       0       0       0       0       0       0       0       0       0
       0       0       0       0       0       0       0       0       0       0
       0       0       0       0       0       0       0       0       0       0
       0       0       0       0       0       0       0       0       0       0
       0       0       0       0       0       0       0       0       0       0
       0       0       0       0       0       0       0       0       0       0
       0       0       0       0       0       0       0       0       0       0
       0       0       0       0       0       0       0       0       0       0
       0       0       0       0       0       0       0       0       0       0
       0       0       0       0       0       0       0       0       0       0
       0       0       0       0       0       0       0       0       0       0
       0       0       0       0       0       0       0       0       0       0
       0       0       0       0       0       0       0       0       0       0
       0       0       0       0       0       0       0       0       0       0
       0       0       0       0       0       0       0       0       0       0
       0       0       0       0       0       0       0       0       0       0
       0       0       0       0       0       0       0       0       0       0
       0       0       0       0       0       0       0       0       0       0
       0       0       0       0       0       0       0       0       0       0
       0       0       0       0       0       0       0       0       0       0
       0       0       0       0       0       0       0       0       0       0
       0       0       0       0       0       0       0       0       0       0
       0       0       0       0       0       0       0       0       0       0
       0       0       0       0       0       0       0       0       0       0
       0       0       0       0       0       0       0       0       0       0
       0       0       0       0       0       0       0       0       0       0
       0       0       0       0       0       0       0       0       0       0
       0       0       0       0       0       0       0       0       0       0
       0       0       0       0       0       0       0       0       0       0
       0       0       0       0       0       0       0       0       0       0
       0       0       0       0       0       0       0       0       0       0
       0       0       0       0       0       0       0       0       0       0
       0       0       0       0       0       0       0       0       0       0
       0       0       0       0       0       0       0       0       0       0
       0       0       0       0       0       0       0       0       0       0
       0       0       0       0       0       0       0       0       0       0
       0       0       0       0       0       0       0       0       0       0
       0       0       0       0       0       0       0       0       0       0
       0       0       0       0       0       0       0       0       0       0
       0       0       0       0       0       0       0       0       0       0
       0       0       0       0       0       0       0       0       0       0
       0       0       0       0       0       0       0       0       0       0
       0       0       0       0       0       0       0       0       0       0
       0       0       0       0       0       0       0       0       0       0
       0       0       0       0       0       0       0       0       0       0
       0       0       0       0       0       0       0       0       0       0
       0       0       0       0       0       0       0       0       0       0
       0       0       0       0       0       0       0       0       0       0
       0       0       0       0       0       0       0       0       0       0
       0       0       0       0       0       0       0       0       0       0
       0       0       0       0       0       0       0       0       0       0
       0       0       0       0       0       0       0       0       0       0
       0       0       0       0       0       0       0       0       0       0
       0       0       0       0       0       0       0       0       0       0
       0       0       0       0       0       0       0       0       0       0
       0       0       0       0       0       0       0       0       0       0
       0       0       0       0       0       0       0       0       0       0
       0       0       0       0       0       0       0       0       0       0
       0       0       0       0       0       0       0       0       0       0
       0       0       0       0       0       0       0       0       0       0
       0       0       0       0       0       0       0       0       0       0
       0       0       0       0       0       0       0       0       0       0
       0       0       0       0       0       0       0       0       0       0
       0       0       0       0       0       0       0       0       0       0
       0       0       0       0       0       0       0       0       0       0
       0       0       0       0       0       0       0       0       0       0
       0       0       0       0       0       0       0       0       0       0
       0       0       0       0       0       0       0       0       0       0
       0       0       0       0       0       0       0       0       0       0
       0       0       0       0       0       0       0       0       0       0
       0       0       0       0       0       0       0       0       0       0
       0       0       0       0       0       0       0       0       0       0
       0       0       0       0       0       0       0       0       0       0
       0       0       0       0       0       0       0       0       0       0
       0       0       0       0       0       0       0       0       0       0
       0       0       0       0       0       0       0       0       0       0
       0       0       0       0       0       0       0       0       0       0
       0       0       0       0       0       0       0       0       0       0
       0       0       0       0       0       0       0       0       0       0
       0       0       0       0       0       0       0       0       0       0
       0       0       0       0       0       0       0       0       0       0
       0       0       0       0       0       0       0       0       0       0
       0       0       0       0       0       0       0       0       0       0
       0       0       0       0       0       0       0       0       0       0
       0       0       0       0       0       0       0       0       0       0
       0       0       0       0       0       0       0       0       0       0
       0       0       0       0       0       0       0       0       0       0
       0       0       0       0       0       0       0       0       0       0
       0       0       0       0       0       0       0       0       0       0
       0       0       0       0       0       0       0       0       0       0
       0       0       0       0       0       0       0       0       0       0
       0       0       0       0       0       0       0       0       0       0
       0       0       0       0       0       0       0       0       0       0
       0       0       0       0       0       0       0       0       0       0
       0       0       0       0       0       0       0       0       0       0
       0       0       0       0       0       0       0       0       0       0
       0       0       0       0       0       0       0       0       0       0
       0       0       0       0       0       0       0       0       0       0
       0       0       0       0       0       0       0       0       0       0
       0       0       0       0       0       0       0       0       0       0
       0       0       0       0       0       0       0       0       0       0
       0       0       0       0       0       0       0       0       0       0
       0       0       0       0       0       0       0       0       0       0
       0       0       0       0       0       0       0       0       0       0
       0       0       0       0       0       0       0       0       0       0
       0       0       0       0       0       0       0       0       0       0
       0       0       0       0       0       0       0       0       0       0
       0       0       0       0       0       0       0       0       0       0
       0       0       0       0       0       0       0       0       0       0
       0       0       0       0       0       0       0       0       0       0
       0       0       0       0       0       0       0       0       0       0
       0       0       0       0       0       0       0       0       0       0
       0       0       0       0       0       0       0       0       0       0
       0       0       0       0       0       0       0       0       0       0
       0       0       0       0       0       0       0       0       0       0
       0       0       0       0       0       0       0       0       0       0
       0       0       0       0       0       0       0       0       0       0
       0       0       0       0       0       0       0       0       0       0
       0       0       0       0       0       0       0       0       0       0
       0       0       0       0       0       0       0       0       0       0
       0       0       0       0       0       0       0       0       0       0
       0       0       0       0       0       0       0       0       0       0
       0       0       0       0       0       0       0       0       0       0
       0       0       0       0       0       0       0       0       0       0
       0       0       0       0       0       0       0       0       0       0
       0       0       0       0       0       0       0       0       0       0
       0       0       0       0       0       0       0       0       0       0
       0       0       0       0       0       0       0       0       0       0
       0       0       0       0       0       0       0       0       0       0
       0       0       0       0       0       0       0       0       0       0
       0       0       0       0       0       0       0       0       0       0
       0       0       0       0       0       0       0       0       0       0
       0       0       0       0       0       0       0       0       0       0
       0       0       0       0       0       0       0       0       0       0
       0       0       0       0       0       0       0       0       0       0
       0       0       0       0       0       0       0       0       0       0
       0       0       0       0       0       0       0       0       0       0
       0       0       0       0       0       0       0       0       0       0
       0       0       0       0       0       0       0       0       0       0
       0       0       0       0       0       0       0       0       0       0
       0       0       0       0       0       0       0       0       0       0
       0       0       0       0       0       0       0       0       0       0
       0       0       0       0       0       0       0       0       0       0
       0       0       0       0       0       0       0       0       0       0
       0       0       0       0       0       0       0       0       0       0
       0       0       0       0       0       0       0       0       0       0
       0       0       0       0       0       0       0       0       0       0
       0       0       0       0       0       0       0       0       0       0
       0       0       0       0       0       0       0       0       0       0
       0       0       0       0       0       0       0       0       0       0
       0       0       0       0       0       0       0       0       0       0
       0       0       0       0       0       0       0       0       0       0
       0       0       0       0       0       0       0       0       0       0
       0       0       0       0       0       0       0       0       0       0
       0       0       0       0       0       0       0       0       0       0
       0       0       0       0       0       0       0       0       0       0
       0       0       0       0       0       0       0       0       0       0
       0       0       0       0       0       0       0       0       0       0
       0       0       0       0       0       0       0       0       0       0
       0       0       0       0       0       0       0       0       0       0
       0       0       0       0       0       0       0       0       0       0
       0       0       0       0       0       0       0       0       0       0
       0       0       0       0       0       0       0       0       0       0
       0       0       0       0       0       0       0       0       0       0
       0       0       0       0       0       0       0       0       0       0
       0       0       0       0       0       0       0       0       0       0
       0       0       0       0       0       0       0       0       0       0
       0       0       0       0       0       0       0       0       0       0
       0       0       0       0       0       0       0       0       0       0
       0       0       0       0       0       0       0       0       0       0
       0       0       0       0       0       0       0       0       0       0
       0       0       0       0       0       0       0       0       0       0
       0       0       0       0       0       0       0       0       0       0
       0       0       0       0       0       0       0       0       0       0
       0       0       0       0       0       0       0       0       0       0
       0       0       0       0       0       0       0       0       0       0
       0       0       0       0       0       0       0       0       0       0
       0       0       0       0       0       0       0       0       0       0
       0       0       0       0       0       0       0       0       0       0
       0       0       0       0       0       0       0       0       0       0
       0       0       0       0       0       0       0       0       0       0
       0       0       0       0       0       0       0       0       0       0
       0       0       0       0       0       0       0       0       0       0
       0       0       0       0       0       0       0       0       0       0
       0       0       0       0       0       0       0       0       0       0
       0       0       0       0       0       0       0       0       0       0
       0       0       0       0       0       0       0       0       0       0
       0       0       0       0       0       0       0       0       0       0
       0       0       0       0       0       0       0       0       0       0
       0       0       0       0       0       0       0       0       0       0
       0       0       0       0       0       0       0       0       0       0
       0       0       0       0       0       0       0       0       0       0
       0       0       0       0       0       0       0       0       0       0
       0       0       0       0       0       0       0       0       0       0
       0       0       0       0       0       0       0       0       0       0
       0       0       0       0       0       0       0       0       0       0
       0       0       0       0       0       0       0       0       0       0
       0       0       0       0       0       0       0       0       0       0
       0       0       0       0       0       0       0       0       0       0
       0       0       0       0       0       0       0       0       0       0
       0       0       0       0       0       0       0       0       0       0
       0       0       0       0       0       0       0       0       0       0
       0       0       0       0       0       0       0       0       0       0
       0       0       0       0       0       0       0       0       0       0
       0       0       0       0       0       0       0       0       0       0
       0       0       0       0       0       0       0       0       0       0
       0       0       0       0       0       0       0       0       0       0
       0       0       0       0       0       0       0       0       0       0
       0       0       0       0       0       0       0       0       0       0
       0       0       0       0       0       0       0       0       0       0
       0       0       0       0       0       0       0       0       0       0
       0       0       0       0       0       0       0       0       0       0
       0       0       0       0       0       0       0       0       0       0
       0       0       0       0       0       0       0       0       0       0
       0       0       0       0       0       0       0       0       0       0
       0       0       0       0       0       0       0       0       0       0
       0       0       0       0       0       0       0       0       0       0
       0       0       0       0       0       0       0       0       0       0
       0       0       0       0       0       0       0       0       0       0
       0       0       0       0       0       0       0       0       0       0
       0       0       0       0       0       0       0       0       0       0
       0       0       0       0       0       0       0       0       0       0
       0       0       0       0       0       0       0       0       0       0
       0       0       0       0       0       0       0       0       0       0
       0       0       0       0       0       0       0       0       0       0
       0       0       0       0       0       0       0       0       0       0
       0       0       0       0       0       0       0       0       0       0
       0       0       0       0       0       0       0       0       0       0
       0       0       0       0       0       0       0       0       0       0
       0       0       0       0       0       0       0       0       0       0
       0       0       0       0       0       0       0       0       0       0
       0       0       0       0       0       0       0       0       0       0
       0       0       0       0       0       0       0       0       0       0
       0       0       0       0       0       0       0       0       0       0
       0       0       0       0       0       0       0       0       0       0
       0       0       0       0       0       0       0       0       0       0
       0       0       0       0       0       0       0       0       0       0
       0       0       0       0       0       0       0       0       0       0
       0       0       0       0       0       0       0       0       0       0
       0       0       0       0       0       0       0       0       0       0
       0       0       0       0       0       0       0       0       0       0
       0       0       0       0       0       0       0       0       0       0
       0       0       0       0       0       0       0       0       0       0
       0       0       0       0       0       0       0       0       0       0
       0       0       0       0       0       0       0       0       0       0
       0       0       0       0       0       0       0       0       0       0
       0       0       0       0       0       0       0       0       0       0
       0       0       0       0       0       0       0       0       0       0
       0       0       0       0       0       0       0       0       0       0
       0       0       0       0       0       0       0       0       0       0
       0       0       0       0       0       0       0       0       0       0
       0       0       0       0       0       0       0       0       0       0
       0       0       0       0       0       0       0       0       0       0
       0       0       0       0       0       0       0       0       0       0
       0       0       0       0       0       0       0       0       0       0
       0       0       0       0       0       0       0       0       0       0
       0       0       0       0       0       0       0       0       0       0
       0       0       0       0       0       0       0       0       0       0
       0       0       0       0       0       0       0       0       0       0
       0       0       0       0       0       0       0       0       0       0
       0       0       0       0       0       0       0       0       0       0
       0       0       0       0       0       0       0       0       0       0
       0       0       0       0       0       0       0       0       0       0
       0       0       0       0       0       0       0       0       0       0
       0       0       0       0       0       0       0       0       0       0
       0       0       0       0       0       0       0       0       0       0
       0       0       0       0       0       0       0       0       0       0
       0       0       0       0       0       0       0       0       0       0
       0       0       0       0       0       0       0       0       0       0
       0       0       0       0       0       0       0       0       0       0
       0       0       0       0       0       0       0       0       0       0
       0       0       0       0       0       0       0       0       0       0
       0       0       0       0       0       0       0       0       0       0
       0       0       0       0       0       0       0       0       0       0
       0       0       0       0       0       0       0       0       0       0
       0       0       0       0       0       0       0       0       0       0
       0       0       0       0       0       0       0       0       0       0
       0       0       0       0       0       0       0       0       0       0
       0       0       0       0       0       0       0       0       0       0
       0       0       0       0       0       0       0       0       0       0
       0       0       0       0       0       0       0       0       0       0
       0       0       0       0       0       0       0       0       0       0
       0       0       0       0       0       0       0       0       0       0
       0       0       0       0       0       0       0       0       0       0
       0       0       0       0       0       0       0       0       0       0
       0       0       0       0       0       0       0       0       0       0
       0       0       0       0       0       0       0       0       0       0
       0       0       0       0       0       0       0       0       0       0
       0       0       0       0       0       0       0       0       0       0
       0       0       0       0       0       0       0       0       0       0
       0       0       0       0       0       0       0       0       0       0
       0       0       0       0       0       0       0       0       0       0
       0       0       0       0       0       0       0       0       0       0
       0       0       0       0       0       0       0       0       0       0
       0       0       0       0       0       0       0       0       0       0
       0       0       0       0       0       0       0       0       0       0
       0       0       0       0       0       0       0       0       0       0
       0       0       0       0       0       0       0       0       0       0
       0       0       0       0       0       0       0       0       0       0
       0       0       0       0       0       0       0       0       0       0
       0       0       0       0       0       0       0       0       0       0
       0       0       0       0       0       0       0       0       0       0
       0       0       0       0       0       0       0       0       0       0
       0       0       0       0       0       0       0       0       0       0
       0       0       0       0       0       0       0       0       0       0
       0       0       0       0       0       0       0       0       0       0
       0       0       0       0       0       0       0       0       0       0
       0       0       0       0       0       0       0       0       0       0
       0       0       0       0       0       0       0       0       0       0
       0       0       0       0       0       0       0       0       0       0
       0       0       0       0       0       0       0       0       0       0
       0       0       0       0       0       0       0       0       0       0
       0       0       0       0       0       0       0       0       0       0
       0       0       0       0       0       0       0       0       0       0
       0       0       0       0       0       0       0       0       0       0
       0       0       0       0       0       0       0       0       0       0
       0       0       0       0       0       0       0       0       0       0
       0       0       0       0       0       0       0       0       0       0
       0       0       0       0       0       0       0       0       0       0
       0       0       0       0       0       0       0       0       0       0
       0       0       0       0       0       0       0       0       0       0
       0       0       0       0       0       0       0       0       0       0
       0       0       0       0       0       0       0       0       0       0
       0       0       0       0       0       0       0       0       0       0
       0       0       0       0       0       0       0       0       0       0
       0       0       0       0       0       0       0       0       0       0
       0       0       0       0       0       0       0       0       0       0
       0       0       0       0       0       0       0       0       0       0
       0       0       0       0       0       0       0       0       0       0
       0       0       0       0       0       0       0       0       0       0
       0       0       0       0       0       0       0       0       0       0
       0       0       0       0       0       0       0       0       0       0
       0       0       0       0       0       0       0       0       0       0
       0       0       0       0       0       0       0       0       0       0
       0       0       0       0       0       0       0       0       0       0
       0       0       0       0       0       0       0       0       0       0
       0       0       0       0       0       0       0       0       0       0
       0       0       0       0       0       0       0       0       0       0
       0       0       0       0       0       0       0       0       0       0
       0       0       0       0       0       0       0       0       0       0
       0       0       0       0       0       0       0       0       0       0
       0       0       0       0       0       0       0       0       0       0
       0       0       0       0       0       0       0       0       0       0
       0       0       0       0       0       0       0       0       0       0
       0       0       0       0       0       0       0       0       0       0
       0       0       0       0       0       0       0       0       0       0
       0       0       0       0       0       0       0       0       0       0
       0       0       0       0       0       0       0       0       0       0
       0       0       0       0       0       0       0       0       0       0
       0       0       0       0       0       0       0       0       0       0
       0       0       0       0       0       0       0       0       0       0
       0       0       0       0       0       0       0       0       0       0
       0       0       0       0       0       0       0       0       0       0
       0       0       0       0       0       0       0       0       0       0
       0       0       0       0       0       0       0       0       0       0
       0       0       0       0       0       0       0       0       0       0
       0       0       0       0       0       0       0       0       0       0
       0       0       0       0       0       0       0       0       0       0
       0       0       0       0       0       0       0       0       0       0
       0       0       0       0       0       0       0       0       0       0
       0       0       0       0       0       0       0       0       0       0
       0       0       0       0       0       0       0       0       0       0
       0       0       0       0       0       0       0       0       0       0
       0       0       0       0       0       0       0       0       0       0
       0       0       0       0       0       0       0       0       0       0
       0       0       0       0       0       0       0       0       0       0
       0       0       0       0       0       0       0       0       0       0
       0       0       0       0       0       0       0       0       0       0
       0       0       0       0       0       0       0       0       0       0
       0       0       0       0       0       0       0       0       0       0
       0       0       0       0       0       0       0       0       0       0
       0       0       0       0       0       0       0       0       0       0
       0       0       0       0       0       0       0       0       0       0
       0       0       0       0       0       0       0       0       0       0
       0       0       0       0       0       0       0       0       0       0
       0       0       0       0       0       0       0       0       0       0
       0       0       0       0       0       0       0       0       0       0
       0       0       0       0       0       0       0       0       0       0
       0       0       0       0       0       0       0       0       0       0
       0       0       0       0       0       0       0       0       0       0
       0       0       0       0       0       0       0       0       0       0
       0       0       0       0       0       0       0       0       0       0
       0       0       0       0       0       0       0       0       0       0
       0       0       0       0       0       0       0       0       0       0
       0       0       0       0       0       0       0       0       0       0
       0       0       0       0       0       0       0       0       0       0
       0       0       0       0       0       0       0       0       0       0
       0       0       0       0       0       0       0       0       0       0
       0       0       0       0       0       0       0       0       0       0
       0       0       0       0       0       0       0       0       0       0
       0       0       0       0       0       0       0       0       0       0
       0       0       0       0       0       0       0       0       0       0
       0       0       0       0       0       0       0       0       0       0
       0       0       0       0       0       0       0       0       0       0
       0       0       0       0       0       0       0       0       0       0
       0       0       0       0       0       0       0       0       0       0
       0       0       0       0       0       0       0       0       0       0
       0       0       0       0       0       0       0       0       0       0
       0       0       0       0       0       0       0       0       0       0
       0       0       0       0       0       0       0       0       0       0
       0       0       0       0       0       0       0       0       0       0
       0       0       0       0       0       0       0       0       0       0
       0       0       0       0       0       0       0       0       0       0
       0       0       0       0       0       0       0       0       0       0
       0       0       0       0       0       0       0       0       0       0
       0       0       0       0       0       0       0       0       0       0
       0       0       0       0       0       0       0       0       0       0
       0       0       0       0       0       0       0       0       0       0
       0       0       0       0       0       0       0       0       0       0
       0       0       0       0       0       0       0       0       0       0
       0       0       0       0       0       0       0       0       0       0
       0       0       0       0       0       0       0       0       0       0
       0       0       0       0       0       0       0       0       0       0
       0       0       0       0       0       0       0       0       0       0
       0       0       0       0       0       0       0       0       0       0
       0       0       0       0       0       0       0       0       0       0
       0       0       0       0       0       0       0       0       0       0
       0       0       0       0       0       0       0       0       0       0
       0       0       0       0       0       0       0       0       0       0
       0       0       0       0       0       0       0       0       0       0
       0       0       0       0       0       0       0       0       0       0
       0       0       0       0       0       0       0       0       0       0
       0       0       0       0       0       0       0       0       0       0
       0       0       0       0       0       0       0       0       0       0
       0       0       0       0       0       0       0       0       0       0
       0       0       0       0       0       0       0       0       0       0
       0       0       0       0       0       0       0       0       0       0
       0       0       0       0       0       0       0       0       0       0
       0       0       0       0       0       0       0       0       0       0
       0       0       0       0       0       0       0       0       0       0
       0       0       0       0       0       0       0       0       0       0
       0       0       0       0       0       0       0       0       0       0
       0       0       0       0       0       0       0       0       0       0
       0       0       0       0       0       0       0       0       0       0
       0       0       0       0       0       0       0       0       0       0
       0       0       0       0       0       0       0       0       0       0
       0       0       0       0       0       0       0       0       0       0
       0       0       0       0       0       0       0       0       0       0
       0       0       0       0       0       0       0       0       0       0
       0       0       0       0       0       0       0       0       0       0
       0       0       0       0       0       0       0       0       0       0
       0       0       0       0       0       0       0       0       0       0
       0       0       0       0       0       0       0       0       0       0
       0       0       0       0       0       0       0       0       0       0
       0       0       0       0       0       0       0       0       0       0
       0       0       0       0       0       0       0       0       0       0
       0       0       0       0       0       0       0       0       0       0
       0       0       0       0       0       0       0       0       0       0
       0       0       0       0       0       0       0       0       0       0
       0       0       0       0       0       0       0       0       0       0
       0       0       0       0       0       0       0       0       0       0
       0       0       0       0       0       0       0       0       0       0
       0       0       0       0       0       0       0       0       0       0
       0       0       0       0       0       0       0       0       0       0
       0       0       0       0       0       0       0       0       0       0
       0       0       0       0       0       0       0       0       0       0
       0       0       0       0       0       0       0       0       0       0
       0       0       0       0       0       0       0       0       0       0
       0       0       0       0       0       0       0       0       0       0
       0       0       0       0       0       0       0       0       0       0
       0       0       0       0       0       0       0       0       0       0
       0       0       0       0       0       0       0       0       0       0
       0       0       0       0       0       0       0       0       0       0
       0       0       0       0       0       0       0       0       0       0
       0       0       0       0       0       0       0       0       0       0
       0       0       0       0       0       0       0       0       0       0
       0       0       0       0       0       0       0       0       0       0
       0       0       0       0       0       0       0       0       0       0
       0       0       0       0       0       0       0       0       0       0
       0       0       0       0       0       0       0       0       0       0
       0       0       0       0       0       0       0       0       0       0
       0       0       0       0       0       0       0       0       0       0
       0       0       0       0       0       0       0       0       0       0
       0       0       0       0       0       0       0       0       0       0
       0       0       0       0       0       0       0       0       0       0
       0       0       0       0       0       0       0       0       0       0
       0       0       0       0       0       0       0       0       0       0
       0       0       0       0       0       0       0       0       0       0
       0       0       0       0       0       0       0       0       0       0
       0       0       0       0       0       0       0       0       0       0
       0       0       0       0       0       0       0       0       0       0
       0       0       0       0       0       0       0       0       0       0
       0       0       0       0       0       0       0       0       0       0
       0       0       0       0       0       0       0       0       0       0
       0       0       0       0       0       0       0       0       0       0
       0       0       0       0       0       0       0       0       0       0
       0       0       0       0       0       0       0       0       0       0
       0       0       0       0       0       0       0       0       0       0
       0       0       0       0       0       0       0       0       0       0
       0       0       0       0       0       0       0       0       0       0
       0       0       0       0       0       0       0       0       0       0
       0       0       0       0       0       0       0       0       0       0
       0       0       0       0       0       0       0       0       0       0
       0       0       0       0       0       0       0       0       0       0
       0       0       0       0       0       0       0       0       0       0
       0       0       0       0       0       0       0       0       0       0
       0       0       0       0       0       0       0       0       0       0
       0       0       0       0       0       0       0       0       0       0
       0       0       0       0       0       0       0       0       0       0
       0       0       0       0       0       0       0       0       0       0
       0       0       0       0       0       0       0       0       0       0
       0       0       0       0       0       0       0       0       0       0
       0       0       0       0       0       0       0       0       0       0
       0       0       0       0       0       0       0       0       0       0
       0       0       0       0       0       0       0       0       0       0
       0       0       0       0       0       0       0       0       0       0
       0       0       0       0       0       0       0       0       0       0
       0       0       0       0       0       0       0       0       0       0
       0       0       0       0       0       0       0       0       0       0
       0       0       0       0       0       0       0       0       0       0
       0       0       0       0       0       0       0       0       0       0
       0       0       0       0       0       0       0       0       0       0
       0       0       0       0       0       0       0       0       0       0
       0       0       0       0       0       0       0       0       0       0
       0       0       0       0       0       0       0       0       0       0
       0       0       0       0       0       0       0       0       0       0
       0       0       0       0       0       0       0       0       0       0
       0       0       0       0       0       0       0       0       0       0
       0       0       0       0       0       0       0       0       0       0
       0       0       0       0       0       0       0       0       0       0
       0       0       0       0       0       0       0       0       0       0
       0       0       0       0       0       0       0       0       0       0
       0       0       0       0       0       0       0       0       0       0
       0       0       0       0       0       0       0       0       0       0
       0       0       0       0       0       0       0       0       0       0
       0       0       0       0       0       0       0       0       0       0
       0       0       0       0       0       0       0       0       0       0
       0       0       0       0       0       0       0       0       0       0
       0       0       0       0       0       0       0       0       0       0
       0       0       0       0       0       0       0       0       0       0
       0       0       0       0       0       0       0       0       0       0
       0       0       0       0       0       0       0       0       0       0
       0       0       0       0       0       0       0       0       0       0
       0       0       0       0       0       0       0       0       0       0
       0       0       0       0       0       0       0       0       0       0
       0       0       0       0       0       0       0       0       0       0
       0       0       0       0       0       0       0       0       0       0
       0       0       0       0       0       0       0       0       0       0
       0       0       0       0       0       0       0       0       0       0
       0       0       0       0       0       0       0       0       0       0
       0       0       0       0       0       0       0       0       0       0
       0       0       0       0       0       0       0       0       0       0
       0       0       0       0       0       0       0       0       0       0
       0       0       0       0       0       0       0       0       0       0
       0       0       0       0       0       0       0       0       0       0
       0       0       0       0       0       0       0       0       0       0
       0       0       0       0       0       0       0       0       0       0
       0       0       0       0       0       0       0       0       0       0
       0       0       0       0       0       0       0       0       0       0
       0       0       0       0       0       0       0       0       0       0
       0       0       0       0       0       0       0       0       0       0
       0       0       0       0       0       0       0       0       0       0
       0       0       0       0       0       0       0       0       0       0
       0       0       0       0       0       0       0       0       0       0
       0       0       0       0       0       0       0       0       0       0
       0       0       0       0       0       0       0       0       0       0
       0       0       0       0       0       0       0       0       0       0
       0       0       0       0       0       0       0       0       0       0
       0       0       0       0       0       0       0       0       0       0
       0       0       0       0       0       0       0       0       0       0
       0       0       0       0       0       0       0       0       0       0
       0       0       0       0       0       0       0       0       0       0
       0       0       0       0       0       0       0       0       0       0
       0       0       0       0       0       0       0       0       0       0
       0       0       0       0       0       0       0       0       0       0
       0       0       0       0       0       0       0       0       0       0
       0       0       0       0       0       0       0       0       0       0
       0       0       0       0       0       0       0       0       0       0
       0       0       0       0       0       0       0       0       0       0
       0       0       0       0       0       0       0       0       0       0
       0       0       0       0       0       0       0       0       0       0
       0       0       0       0       0       0       0       0       0       0
       0       0       0       0       0       0       0       0       0       0
       0       0       0       0       0       0       0       0       0       0
       0       0       0       0       0       0       0       0       0       0
       0       0       0       0       0       0       0       0       0       0
       0       0       0       0       0       0       0       0       0       0
       0       0       0       0       0       0       0       0       0       0
       0       0       0       0       0       0       0       0       0       0
       0       0       0       0       0       0       0       0       0       0
       0       0       0       0       0       0       0       0       0       0
       0       0       0       0       0       0       0       0       0       0
       0       0       0       0       0       0       0       0       0       0
       0       0       0       0       0       0       0       0       0       0
       0       0       0       0       0       0       0       0       0       0
       0       0       0       0       0       0       0       0       0       0
       0       0       0       0       0       0       0       0       0       0
       0       0       0       0       0       0       0       0       0       0
       0       0       0       0       0       0       0       0       0       0
       0       0       0       0       0       0       0       0       0       0
       0       0       0       0       0       0       0       0       0       0
       0       0       0       0       0       0       0       0       0       0
       0       0       0       0       0       0       0       0       0       0
       0       0       0       0       0       0       0       0       0       0
       0       0       0       0       0       0       0       0       0       0
       0       0       0       0       0       0       0       0       0       0
       0       0       0       0       0       0       0       0       0       0
       0       0       0       0       0       0       0       0       0       0
       0       0       0       0       0       0       0       0       0       0
       0       0       0       0       0       0       0       0       0       0
       0       0       0       0       0       0       0       0       0       0
       0       0       0       0       0       0       0       0       0       0
       0       0       0       0       0       0       0       0       0       0
       0       0       0       0       0       0       0       0       0       0
       0       0       0       0       0       0       0       0       0       0
       0       0       0       0       0       0       0       0       0       0
       0       0       0       0       0       0       0       0       0       0
       0       0       0       0       0       0       0       0       0       0
       0       0       0       0       0       0       0       0       0       0
       0       0       0       0       0       0       0       0       0       0
       0       0       0       0       0       0       0       0       0       0
       0       0       0       0       0       0       0       0       0       0
       0       0       0       0       0       0       0       0       0       0
       0       0       0       0       0       0       0       0       0       0
       0       0       0       0       0       0       0       0       0       0
       0       0       0       0       0       0       0       0       0       0
       0       0       0       0       0       0       0       0       0       0
       0       0       0       0       0       0       0       0       0       0
       0       0       0       0       0       0       0       0       0       0
       0       0       0       0       0       0       0       0       0       0
       0       0       0       0       0       0       0       0       0       0
       0       0       0       0       0       0       0       0       0       0
       0       0       0       0       0       0       0       0       0       0
       0       0       0       0       0       0       0       0       0       0
       0       0       0       0       0       0       0       0       0       0
       0       0       0       0       0       0       0       0       0       0
       0       0       0       0       0       0       0       0       0       0
       0       0       0       0       0       0       0       0       0       0
       0       0       0       0       0       0       0       0       0       0
       0       0       0       0       0       0       0       0       0       0
       0       0       0       0       0       0       0       0       0       0
       0       0       0       0       0       0       0       0       0       0
       0       0       0       0       0       0       0       0       0       0
       0       0       0       0       0       0       0       0       0       0
       0       0       0       0       0       0       0       0       0       0
       0       0       0       0       0       0       0       0       0       0
       0       0
%FLAG RADIUS_SET                                                                
%FORMAT(1a80)                                                                   
modified Bondi radii (mbondi)                                                   
%FLAG RADII                                                                     
%FORMAT(5E16.8)                                                                 
  1.50000000E+00  1.70000000E+00  1.50000000E+00  1.70000000E+00  1.50000000E+00
  1.70000000E+00  1.50000000E+00  1.70000000E+00  1.50000000E+00  1.70000000E+00
  1.50000000E+00  1.70000000E+00  1.55000000E+00  1.70000000E+00  1.55000000E+00
  1.55000000E+00  1.70000000E+00  1.70000000E+00  1.70000000E+00  1.70000000E+00
  1.70000000E+00  1.70000000E+00  1.55000000E+00  1.70000000E+00  1.70000000E+00
  1.55000000E+00  1.70000000E+00  1.55000000E+00  1.30000000E+00  1.30000000E+00
  1.30000000E+00  1.30000000E+00  1.30000000E+00  1.30000000E+00  1.30000000E+00
  1.30000000E+00  1.30000000E+00  1.30000000E+00  1.50000000E+00  8.00000000E-01
  8.00000000E-01  1.50000000E+00  1.50000000E+00  8.00000000E-01  8.00000000E-01
  1.50000000E+00  1.50000000E+00  8.00000000E-01  8.00000000E-01  1.50000000E+00
  1.50000000E+00  8.00000000E-01  8.00000000E-01  1.50000000E+00  1.50000000E+00
  8.00000000E-01  8.00000000E-01  1.50000000E+00  1.50000000E+00  8.00000000E-01
  8.00000000E-01  1.50000000E+00  1.50000000E+00  8.00000000E-01  8.00000000E-01
  1.50000000E+00  1.50000000E+00  8.00000000E-01  8.00000000E-01  1.50000000E+00
  1.50000000E+00  8.00000000E-01  8.00000000E-01  1.50000000E+00  1.50000000E+00
  8.00000000E-01  8.00000000E-01  1.50000000E+00  1.50000000E+00  8.00000000E-01
  8.00000000E-01  1.50000000E+00  1.50000000E+00  8.00000000E-01  8.00000000E-01
  1.50000000E+00  1.50000000E+00  8.00000000E-01  8.00000000E-01  1.50000000E+00
  1.50000000E+00  8.00000000E-01  8.00000000E-01  1.50000000E+00  1.50000000E+00
  8.00000000E-01  8.00000000E-01  1.50000000E+00  1.50000000E+00  8.00000000E-01
  8.00000000E-01  1.50000000E+00  1.50000000E+00  8.00000000E-01  8.00000000E-01
  1.50000000E+00  1.50000000E+00  8.00000000E-01  8.00000000E-01  1.50000000E+00
  1.50000000E+00  8.00000000E-01  8.00000000E-01  1.50000000E+00  1.50000000E+00
  8.00000000E-01  8.00000000E-01  1.50000000E+00  1.50000000E+00  8.00000000E-01
  8.00000000E-01  1.50000000E+00  1.50000000E+00  8.00000000E-01  8.00000000E-01
  1.50000000E+00  1.50000000E+00  8.00000000E-01  8.00000000E-01  1.50000000E+00
  1.50000000E+00  8.00000000E-01  8.00000000E-01  1.50000000E+00  1.50000000E+00
  8.00000000E-01  8.00000000E-01  1.50000000E+00  1.50000000E+00  8.00000000E-01
  8.00000000E-01  1.50000000E+00  1.50000000E+00  8.00000000E-01  8.00000000E-01
  1.50000000E+00  1.50000000E+00  8.00000000E-01  8.00000000E-01  1.50000000E+00
  1.50000000E+00  8.00000000E-01  8.00000000E-01  1.50000000E+00  1.50000000E+00
  8.00000000E-01  8.00000000E-01  1.50000000E+00  1.50000000E+00  8.00000000E-01
  8.00000000E-01  1.50000000E+00  1.50000000E+00  8.00000000E-01  8.00000000E-01
  1.50000000E+00  1.50000000E+00  8.00000000E-01  8.00000000E-01  1.50000000E+00
  1.50000000E+00  8.00000000E-01  8.00000000E-01  1.50000000E+00  1.50000000E+00
  8.00000000E-01  8.00000000E-01  1.50000000E+00  1.50000000E+00  8.00000000E-01
  8.00000000E-01  1.50000000E+00  1.50000000E+00  8.00000000E-01  8.00000000E-01
  1.50000000E+00  1.50000000E+00  8.00000000E-01  8.00000000E-01  1.50000000E+00
  1.50000000E+00  8.00000000E-01  8.00000000E-01  1.50000000E+00  1.50000000E+00
  8.00000000E-01  8.00000000E-01  1.50000000E+00  1.50000000E+00  8.00000000E-01
  8.00000000E-01  1.50000000E+00  1.50000000E+00  8.00000000E-01  8.00000000E-01
  1.50000000E+00  1.50000000E+00  8.00000000E-01  8.00000000E-01  1.50000000E+00
  1.50000000E+00  8.00000000E-01  8.00000000E-01  1.50000000E+00  1.50000000E+00
  8.00000000E-01  8.00000000E-01  1.50000000E+00  1.50000000E+00  8.00000000E-01
  8.00000000E-01  1.50000000E+00  1.50000000E+00  8.00000000E-01  8.00000000E-01
  1.50000000E+00  1.50000000E+00  8.00000000E-01  8.00000000E-01  1.50000000E+00
  1.50000000E+00  8.00000000E-01  8.00000000E-01  1.50000000E+00  1.50000000E+00
  8.00000000E-01  8.00000000E-01  1.50000000E+00  1.50000000E+00  8.00000000E-01
  8.00000000E-01  1.50000000E+00  1.50000000E+00  8.00000000E-01  8.00000000E-01
  1.50000000E+00  1.50000000E+00  8.00000000E-01  8.00000000E-01  1.50000000E+00
  1.50000000E+00  8.00000000E-01  8.00000000E-01  1.50000000E+00  1.50000000E+00
  8.00000000E-01  8.00000000E-01  1.50000000E+00  1.50000000E+00  8.00000000E-01
  8.00000000E-01  1.50000000E+00  1.50000000E+00  8.00000000E-01  8.00000000E-01
  1.50000000E+00  1.50000000E+00  8.00000000E-01  8.00000000E-01  1.50000000E+00
  1.50000000E+00  8.00000000E-01  8.00000000E-01  1.50000000E+00  1.50000000E+00
  8.00000000E-01  8.00000000E-01  1.50000000E+00  1.50000000E+00  8.00000000E-01
  8.00000000E-01  1.50000000E+00  1.50000000E+00  8.00000000E-01  8.00000000E-01
  1.50000000E+00  1.50000000E+00  8.00000000E-01  8.00000000E-01  1.50000000E+00
  1.50000000E+00  8.00000000E-01  8.00000000E-01  1.50000000E+00  1.50000000E+00
  8.00000000E-01  8.00000000E-01  1.50000000E+00  1.50000000E+00  8.00000000E-01
  8.00000000E-01  1.50000000E+00  1.50000000E+00  8.00000000E-01  8.00000000E-01
  1.50000000E+00  1.50000000E+00  8.00000000E-01  8.00000000E-01  1.50000000E+00
  1.50000000E+00  8.00000000E-01  8.00000000E-01  1.50000000E+00  1.50000000E+00
  8.00000000E-01  8.00000000E-01  1.50000000E+00  1.50000000E+00  8.00000000E-01
  8.00000000E-01  1.50000000E+00  1.50000000E+00  8.00000000E-01  8.00000000E-01
  1.50000000E+00  1.50000000E+00  8.00000000E-01  8.00000000E-01  1.50000000E+00
  1.50000000E+00  8.00000000E-01  8.00000000E-01  1.50000000E+00  1.50000000E+00
  8.00000000E-01  8.00000000E-01  1.50000000E+00  1.50000000E+00  8.00000000E-01
  8.00000000E-01  1.50000000E+00  1.50000000E+00  8.00000000E-01  8.00000000E-01
  1.50000000E+00  1.50000000E+00  8.00000000E-01  8.00000000E-01  1.50000000E+00
  1.50000000E+00  8.00000000E-01  8.00000000E-01  1.50000000E+00  1.50000000E+00
  8.00000000E-01  8.00000000E-01  1.50000000E+00  1.50000000E+00  8.00000000E-01
  8.00000000E-01  1.50000000E+00  1.50000000E+00  8.00000000E-01  8.00000000E-01
  1.50000000E+00  1.50000000E+00  8.00000000E-01  8.00000000E-01  1.50000000E+00
  1.50000000E+00  8.00000000E-01  8.00000000E-01  1.50000000E+00  1.50000000E+00
  8.00000000E-01  8.00000000E-01  1.50000000E+00  1.50000000E+00  8.00000000E-01
  8.00000000E-01  1.50000000E+00  1.50000000E+00  8.00000000E-01  8.00000000E-01
  1.50000000E+00  1.50000000E+00  8.00000000E-01  8.00000000E-01  1.50000000E+00
  1.50000000E+00  8.00000000E-01  8.00000000E-01  1.50000000E+00  1.50000000E+00
  8.00000000E-01  8.00000000E-01  1.50000000E+00  1.50000000E+00  8.00000000E-01
  8.00000000E-01  1.50000000E+00  1.50000000E+00  8.00000000E-01  8.00000000E-01
  1.50000000E+00  1.50000000E+00  8.00000000E-01  8.00000000E-01  1.50000000E+00
  1.50000000E+00  8.00000000E-01  8.00000000E-01  1.50000000E+00  1.50000000E+00
  8.00000000E-01  8.00000000E-01  1.50000000E+00  1.50000000E+00  8.00000000E-01
  8.00000000E-01  1.50000000E+00  1.50000000E+00  8.00000000E-01  8.00000000E-01
  1.50000000E+00  1.50000000E+00  8.00000000E-01  8.00000000E-01  1.50000000E+00
  1.50000000E+00  8.00000000E-01  8.00000000E-01  1.50000000E+00  1.50000000E+00
  8.00000000E-01  8.00000000E-01  1.50000000E+00  1.50000000E+00  8.00000000E-01
  8.00000000E-01  1.50000000E+00  1.50000000E+00  8.00000000E-01  8.00000000E-01
  1.50000000E+00  1.50000000E+00  8.00000000E-01  8.00000000E-01  1.50000000E+00
  1.50000000E+00  8.00000000E-01  8.00000000E-01  1.50000000E+00  1.50000000E+00
  8.00000000E-01  8.00000000E-01  1.50000000E+00  1.50000000E+00  8.00000000E-01
  8.00000000E-01  1.50000000E+00  1.50000000E+00  8.00000000E-01  8.00000000E-01
  1.50000000E+00  1.50000000E+00  8.00000000E-01  8.00000000E-01  1.50000000E+00
  1.50000000E+00  8.00000000E-01  8.00000000E-01  1.50000000E+00  1.50000000E+00
  8.00000000E-01  8.00000000E-01  1.50000000E+00  1.50000000E+00  8.00000000E-01
  8.00000000E-01  1.50000000E+00  1.50000000E+00  8.00000000E-01  8.00000000E-01
  1.50000000E+00  1.50000000E+00  8.00000000E-01  8.00000000E-01  1.50000000E+00
  1.50000000E+00  8.00000000E-01  8.00000000E-01  1.50000000E+00  1.50000000E+00
  8.00000000E-01  8.00000000E-01  1.50000000E+00  1.50000000E+00  8.00000000E-01
  8.00000000E-01  1.50000000E+00  1.50000000E+00  8.00000000E-01  8.00000000E-01
  1.50000000E+00  1.50000000E+00  8.00000000E-01  8.00000000E-01  1.50000000E+00
  1.50000000E+00  8.00000000E-01  8.00000000E-01  1.50000000E+00  1.50000000E+00
  8.00000000E-01  8.00000000E-01  1.50000000E+00  1.50000000E+00  8.00000000E-01
  8.00000000E-01  1.50000000E+00  1.50000000E+00  8.00000000E-01  8.00000000E-01
  1.50000000E+00  1.50000000E+00  8.00000000E-01  8.00000000E-01  1.50000000E+00
  1.50000000E+00  8.00000000E-01  8.00000000E-01  1.50000000E+00  1.50000000E+00
  8.00000000E-01  8.00000000E-01  1.50000000E+00  1.50000000E+00  8.00000000E-01
  8.00000000E-01  1.50000000E+00  1.50000000E+00  8.00000000E-01  8.00000000E-01
  1.50000000E+00  1.50000000E+00  8.00000000E-01  8.00000000E-01  1.50000000E+00
  1.50000000E+00  8.00000000E-01  8.00000000E-01  1.50000000E+00  1.50000000E+00
  8.00000000E-01  8.00000000E-01  1.50000000E+00  1.50000000E+00  8.00000000E-01
  8.00000000E-01  1.50000000E+00  1.50000000E+00  8.00000000E-01  8.00000000E-01
  1.50000000E+00  1.50000000E+00  8.00000000E-01  8.00000000E-01  1.50000000E+00
  1.50000000E+00  8.00000000E-01  8.00000000E-01  1.50000000E+00  1.50000000E+00
  8.00000000E-01  8.00000000E-01  1.50000000E+00  1.50000000E+00  8.00000000E-01
  8.00000000E-01  1.50000000E+00  1.50000000E+00  8.00000000E-01  8.00000000E-01
  1.50000000E+00  1.50000000E+00  8.00000000E-01  8.00000000E-01  1.50000000E+00
  1.50000000E+00  8.00000000E-01  8.00000000E-01  1.50000000E+00  1.50000000E+00
  8.00000000E-01  8.00000000E-01  1.50000000E+00  1.50000000E+00  8.00000000E-01
  8.00000000E-01  1.50000000E+00  1.50000000E+00  8.00000000E-01  8.00000000E-01
  1.50000000E+00  1.50000000E+00  8.00000000E-01  8.00000000E-01  1.50000000E+00
  1.50000000E+00  8.00000000E-01  8.00000000E-01  1.50000000E+00  1.50000000E+00
  8.00000000E-01  8.00000000E-01  1.50000000E+00  1.50000000E+00  8.00000000E-01
  8.00000000E-01  1.50000000E+00  1.50000000E+00  8.00000000E-01  8.00000000E-01
  1.50000000E+00  1.50000000E+00  8.00000000E-01  8.00000000E-01  1.50000000E+00
  1.50000000E+00  8.00000000E-01  8.00000000E-01  1.50000000E+00  1.50000000E+00
  8.00000000E-01  8.00000000E-01  1.50000000E+00  1.50000000E+00  8.00000000E-01
  8.00000000E-01  1.50000000E+00  1.50000000E+00  8.00000000E-01  8.00000000E-01
  1.50000000E+00  1.50000000E+00  8.00000000E-01  8.00000000E-01  1.50000000E+00
  1.50000000E+00  8.00000000E-01  8.00000000E-01  1.50000000E+00  1.50000000E+00
  8.00000000E-01  8.00000000E-01  1.50000000E+00  1.50000000E+00  8.00000000E-01
  8.00000000E-01  1.50000000E+00  1.50000000E+00  8.00000000E-01  8.00000000E-01
  1.50000000E+00  1.50000000E+00  8.00000000E-01  8.00000000E-01  1.50000000E+00
  1.50000000E+00  8.00000000E-01  8.00000000E-01  1.50000000E+00  1.50000000E+00
  8.00000000E-01  8.00000000E-01  1.50000000E+00  1.50000000E+00  8.00000000E-01
  8.00000000E-01  1.50000000E+00  1.50000000E+00  8.00000000E-01  8.00000000E-01
  1.50000000E+00  1.50000000E+00  8.00000000E-01  8.00000000E-01  1.50000000E+00
  1.50000000E+00  8.00000000E-01  8.00000000E-01  1.50000000E+00  1.50000000E+00
  8.00000000E-01  8.00000000E-01  1.50000000E+00  1.50000000E+00  8.00000000E-01
  8.00000000E-01  1.50000000E+00  1.50000000E+00  8.00000000E-01  8.00000000E-01
  1.50000000E+00  1.50000000E+00  8.00000000E-01  8.00000000E-01  1.50000000E+00
  1.50000000E+00  8.00000000E-01  8.00000000E-01  1.50000000E+00  1.50000000E+00
  8.00000000E-01  8.00000000E-01  1.50000000E+00  1.50000000E+00  8.00000000E-01
  8.00000000E-01  1.50000000E+00  1.50000000E+00  8.00000000E-01  8.00000000E-01
  1.50000000E+00  1.50000000E+00  8.00000000E-01  8.00000000E-01  1.50000000E+00
  1.50000000E+00  8.00000000E-01  8.00000000E-01  1.50000000E+00  1.50000000E+00
  8.00000000E-01  8.00000000E-01  1.50000000E+00  1.50000000E+00  8.00000000E-01
  8.00000000E-01  1.50000000E+00  1.50000000E+00  8.00000000E-01  8.00000000E-01
  1.50000000E+00  1.50000000E+00  8.00000000E-01  8.00000000E-01  1.50000000E+00
  1.50000000E+00  8.00000000E-01  8.00000000E-01  1.50000000E+00  1.50000000E+00
  8.00000000E-01  8.00000000E-01  1.50000000E+00  1.50000000E+00  8.00000000E-01
  8.00000000E-01  1.50000000E+00  1.50000000E+00  8.00000000E-01  8.00000000E-01
  1.50000000E+00  1.50000000E+00  8.00000000E-01  8.00000000E-01  1.50000000E+00
  1.50000000E+00  8.00000000E-01  8.00000000E-01  1.50000000E+00  1.50000000E+00
  8.00000000E-01  8.00000000E-01  1.50000000E+00  1.50000000E+00  8.00000000E-01
  8.00000000E-01  1.50000000E+00  1.50000000E+00  8.00000000E-01  8.00000000E-01
  1.50000000E+00  1.50000000E+00  8.00000000E-01  8.00000000E-01  1.50000000E+00
  1.50000000E+00  8.00000000E-01  8.00000000E-01  1.50000000E+00  1.50000000E+00
  8.00000000E-01  8.00000000E-01  1.50000000E+00  1.50000000E+00  8.00000000E-01
  8.00000000E-01  1.50000000E+00  1.50000000E+00  8.00000000E-01  8.00000000E-01
  1.50000000E+00  1.50000000E+00  8.00000000E-01  8.00000000E-01  1.50000000E+00
  1.50000000E+00  8.00000000E-01  8.00000000E-01  1.50000000E+00  1.50000000E+00
  8.00000000E-01  8.00000000E-01  1.50000000E+00  1.50000000E+00  8.00000000E-01
  8.00000000E-01  1.50000000E+00  1.50000000E+00  8.00000000E-01  8.00000000E-01
  1.50000000E+00  1.50000000E+00  8.00000000E-01  8.00000000E-01  1.50000000E+00
  1.50000000E+00  8.00000000E-01  8.00000000E-01  1.50000000E+00  1.50000000E+00
  8.00000000E-01  8.00000000E-01  1.50000000E+00  1.50000000E+00  8.00000000E-01
  8.00000000E-01  1.50000000E+00  1.50000000E+00  8.00000000E-01  8.00000000E-01
  1.50000000E+00  1.50000000E+00  8.00000000E-01  8.00000000E-01  1.50000000E+00
  1.50000000E+00  8.00000000E-01  8.00000000E-01  1.50000000E+00  1.50000000E+00
  8.00000000E-01  8.00000000E-01  1.50000000E+00  1.50000000E+00  8.00000000E-01
  8.00000000E-01  1.50000000E+00  1.50000000E+00  8.00000000E-01  8.00000000E-01
  1.50000000E+00  1.50000000E+00  8.00000000E-01  8.00000000E-01  1.50000000E+00
  1.50000000E+00  8.00000000E-01  8.00000000E-01  1.50000000E+00  1.50000000E+00
  8.00000000E-01  8.00000000E-01  1.50000000E+00  1.50000000E+00  8.00000000E-01
  8.00000000E-01  1.50000000E+00  1.50000000E+00  8.00000000E-01  8.00000000E-01
  1.50000000E+00  1.50000000E+00  8.00000000E-01  8.00000000E-01  1.50000000E+00
  1.50000000E+00  8.00000000E-01  8.00000000E-01  1.50000000E+00  1.50000000E+00
  8.00000000E-01  8.00000000E-01  1.50000000E+00  1.50000000E+00  8.00000000E-01
  8.00000000E-01  1.50000000E+00  1.50000000E+00  8.00000000E-01  8.00000000E-01
  1.50000000E+00  1.50000000E+00  8.00000000E-01  8.00000000E-01  1.50000000E+00
  1.50000000E+00  8.00000000E-01  8.00000000E-01  1.50000000E+00  1.50000000E+00
  8.00000000E-01  8.00000000E-01  1.50000000E+00  1.50000000E+00  8.00000000E-01
  8.00000000E-01  1.50000000E+00  1.50000000E+00  8.00000000E-01  8.00000000E-01
  1.50000000E+00  1.50000000E+00  8.00000000E-01  8.00000000E-01  1.50000000E+00
  1.50000000E+00  8.00000000E-01  8.00000000E-01  1.50000000E+00  1.50000000E+00
  8.00000000E-01  8.00000000E-01  1.50000000E+00  1.50000000E+00  8.00000000E-01
  8.00000000E-01  1.50000000E+00  1.50000000E+00  8.00000000E-01  8.00000000E-01
  1.50000000E+00  1.50000000E+00  8.00000000E-01  8.00000000E-01  1.50000000E+00
  1.50000000E+00  8.00000000E-01  8.00000000E-01  1.50000000E+00  1.50000000E+00
  8.00000000E-01  8.00000000E-01  1.50000000E+00  1.50000000E+00  8.00000000E-01
  8.00000000E-01  1.50000000E+00  1.50000000E+00  8.00000000E-01  8.00000000E-01
  1.50000000E+00  1.50000000E+00  8.00000000E-01  8.00000000E-01  1.50000000E+00
  1.50000000E+00  8.00000000E-01  8.00000000E-01  1.50000000E+00  1.50000000E+00
  8.00000000E-01  8.00000000E-01  1.50000000E+00  1.50000000E+00  8.00000000E-01
  8.00000000E-01  1.50000000E+00  1.50000000E+00  8.00000000E-01  8.00000000E-01
  1.50000000E+00  1.50000000E+00  8.00000000E-01  8.00000000E-01  1.50000000E+00
  1.50000000E+00  8.00000000E-01  8.00000000E-01  1.50000000E+00  1.50000000E+00
  8.00000000E-01  8.00000000E-01  1.50000000E+00  1.50000000E+00  8.00000000E-01
  8.00000000E-01  1.50000000E+00  1.50000000E+00  8.00000000E-01  8.00000000E-01
  1.50000000E+00  1.50000000E+00  8.00000000E-01  8.00000000E-01  1.50000000E+00
  1.50000000E+00  8.00000000E-01  8.00000000E-01  1.50000000E+00  1.50000000E+00
  8.00000000E-01  8.00000000E-01  1.50000000E+00  1.50000000E+00  8.00000000E-01
  8.00000000E-01  1.50000000E+00  1.50000000E+00  8.00000000E-01  8.00000000E-01
  1.50000000E+00  1.50000000E+00  8.00000000E-01  8.00000000E-01  1.50000000E+00
  1.50000000E+00  8.00000000E-01  8.00000000E-01  1.50000000E+00  1.50000000E+00
  8.00000000E-01  8.00000000E-01  1.50000000E+00  1.50000000E+00  8.00000000E-01
  8.00000000E-01  1.50000000E+00  1.50000000E+00  8.00000000E-01  8.00000000E-01
  1.50000000E+00  1.50000000E+00  8.00000000E-01  8.00000000E-01  1.50000000E+00
  1.50000000E+00  8.00000000E-01  8.00000000E-01  1.50000000E+00  1.50000000E+00
  8.00000000E-01  8.00000000E-01  1.50000000E+00  1.50000000E+00  8.00000000E-01
  8.00000000E-01  1.50000000E+00  1.50000000E+00  8.00000000E-01  8.00000000E-01
  1.50000000E+00  1.50000000E+00  8.00000000E-01  8.00000000E-01  1.50000000E+00
  1.50000000E+00  8.00000000E-01  8.00000000E-01  1.50000000E+00  1.50000000E+00
  8.00000000E-01  8.00000000E-01  1.50000000E+00  1.50000000E+00  8.00000000E-01
  8.00000000E-01  1.50000000E+00  1.50000000E+00  8.00000000E-01  8.00000000E-01
  1.50000000E+00  1.50000000E+00  8.00000000E-01  8.00000000E-01  1.50000000E+00
  1.50000000E+00  8.00000000E-01  8.00000000E-01  1.50000000E+00  1.50000000E+00
  8.00000000E-01  8.00000000E-01  1.50000000E+00  1.50000000E+00  8.00000000E-01
  8.00000000E-01  1.50000000E+00  1.50000000E+00  8.00000000E-01  8.00000000E-01
  1.50000000E+00  1.50000000E+00  8.00000000E-01  8.00000000E-01  1.50000000E+00
  1.50000000E+00  8.00000000E-01  8.00000000E-01  1.50000000E+00  1.50000000E+00
  8.00000000E-01  8.00000000E-01  1.50000000E+00  1.50000000E+00  8.00000000E-01
  8.00000000E-01  1.50000000E+00  1.50000000E+00  8.00000000E-01  8.00000000E-01
  1.50000000E+00  1.50000000E+00  8.00000000E-01  8.00000000E-01  1.50000000E+00
  1.50000000E+00  8.00000000E-01  8.00000000E-01  1.50000000E+00  1.50000000E+00
  8.00000000E-01  8.00000000E-01  1.50000000E+00  1.50000000E+00  8.00000000E-01
  8.00000000E-01  1.50000000E+00  1.50000000E+00  8.00000000E-01  8.00000000E-01
  1.50000000E+00  1.50000000E+00  8.00000000E-01  8.00000000E-01  1.50000000E+00
  1.50000000E+00  8.00000000E-01  8.00000000E-01  1.50000000E+00  1.50000000E+00
  8.00000000E-01  8.00000000E-01  1.50000000E+00  1.50000000E+00  8.00000000E-01
  8.00000000E-01  1.50000000E+00  1.50000000E+00  8.00000000E-01  8.00000000E-01
  1.50000000E+00  1.50000000E+00  8.00000000E-01  8.00000000E-01  1.50000000E+00
  1.50000000E+00  8.00000000E-01  8.00000000E-01  1.50000000E+00  1.50000000E+00
  8.00000000E-01  8.00000000E-01  1.50000000E+00  1.50000000E+00  8.00000000E-01
  8.00000000E-01  1.50000000E+00  1.50000000E+00  8.00000000E-01  8.00000000E-01
  1.50000000E+00  1.50000000E+00  8.00000000E-01  8.00000000E-01  1.50000000E+00
  1.50000000E+00  8.00000000E-01  8.00000000E-01  1.50000000E+00  1.50000000E+00
  8.00000000E-01  8.00000000E-01  1.50000000E+00  1.50000000E+00  8.00000000E-01
  8.00000000E-01  1.50000000E+00  1.50000000E+00  8.00000000E-01  8.00000000E-01
  1.50000000E+00  1.50000000E+00  8.00000000E-01  8.00000000E-01  1.50000000E+00
  1.50000000E+00  8.00000000E-01  8.00000000E-01  1.50000000E+00  1.50000000E+00
  8.00000000E-01  8.00000000E-01  1.50000000E+00  1.50000000E+00  8.00000000E-01
  8.00000000E-01  1.50000000E+00  1.50000000E+00  8.00000000E-01  8.00000000E-01
  1.50000000E+00  1.50000000E+00  8.00000000E-01  8.00000000E-01  1.50000000E+00
  1.50000000E+00  8.00000000E-01  8.00000000E-01  1.50000000E+00  1.50000000E+00
  8.00000000E-01  8.00000000E-01  1.50000000E+00  1.50000000E+00  8.00000000E-01
  8.00000000E-01  1.50000000E+00  1.50000000E+00  8.00000000E-01  8.00000000E-01
  1.50000000E+00  1.50000000E+00  8.00000000E-01  8.00000000E-01  1.50000000E+00
  1.50000000E+00  8.00000000E-01  8.00000000E-01  1.50000000E+00  1.50000000E+00
  8.00000000E-01  8.00000000E-01  1.50000000E+00  1.50000000E+00  8.00000000E-01
  8.00000000E-01  1.50000000E+00  1.50000000E+00  8.00000000E-01  8.00000000E-01
  1.50000000E+00  1.50000000E+00  8.00000000E-01  8.00000000E-01  1.50000000E+00
  1.50000000E+00  8.00000000E-01  8.00000000E-01  1.50000000E+00  1.50000000E+00
  8.00000000E-01  8.00000000E-01  1.50000000E+00  1.50000000E+00  8.00000000E-01
  8.00000000E-01  1.50000000E+00  1.50000000E+00  8.00000000E-01  8.00000000E-01
  1.50000000E+00  1.50000000E+00  8.00000000E-01  8.00000000E-01  1.50000000E+00
  1.50000000E+00  8.00000000E-01  8.00000000E-01  1.50000000E+00  1.50000000E+00
  8.00000000E-01  8.00000000E-01  1.50000000E+00  1.50000000E+00  8.00000000E-01
  8.00000000E-01  1.50000000E+00  1.50000000E+00  8.00000000E-01  8.00000000E-01
  1.50000000E+00  1.50000000E+00  8.00000000E-01  8.00000000E-01  1.50000000E+00
  1.50000000E+00  8.00000000E-01  8.00000000E-01  1.50000000E+00  1.50000000E+00
  8.00000000E-01  8.00000000E-01  1.50000000E+00  1.50000000E+00  8.00000000E-01
  8.00000000E-01  1.50000000E+00  1.50000000E+00  8.00000000E-01  8.00000000E-01
  1.50000000E+00  1.50000000E+00  8.00000000E-01  8.00000000E-01  1.50000000E+00
  1.50000000E+00  8.00000000E-01  8.00000000E-01  1.50000000E+00  1.50000000E+00
  8.00000000E-01  8.00000000E-01  1.50000000E+00  1.50000000E+00  8.00000000E-01
  8.00000000E-01  1.50000000E+00  1.50000000E+00  8.00000000E-01  8.00000000E-01
  1.50000000E+00  1.50000000E+00  8.00000000E-01  8.00000000E-01  1.50000000E+00
  1.50000000E+00  8.00000000E-01  8.00000000E-01  1.50000000E+00  1.50000000E+00
  8.00000000E-01  8.00000000E-01  1.50000000E+00  1.50000000E+00  8.00000000E-01
  8.00000000E-01  1.50000000E+00  1.50000000E+00  8.00000000E-01  8.00000000E-01
  1.50000000E+00  1.50000000E+00  8.00000000E-01  8.00000000E-01  1.50000000E+00
  1.50000000E+00  8.00000000E-01  8.00000000E-01  1.50000000E+00  1.50000000E+00
  8.00000000E-01  8.00000000E-01  1.50000000E+00  1.50000000E+00  8.00000000E-01
  8.00000000E-01  1.50000000E+00  1.50000000E+00  8.00000000E-01  8.00000000E-01
  1.50000000E+00  1.50000000E+00  8.00000000E-01  8.00000000E-01  1.50000000E+00
  1.50000000E+00  8.00000000E-01  8.00000000E-01  1.50000000E+00  1.50000000E+00
  8.00000000E-01  8.00000000E-01  1.50000000E+00  1.50000000E+00  8.00000000E-01
  8.00000000E-01  1.50000000E+00  1.50000000E+00  8.00000000E-01  8.00000000E-01
  1.50000000E+00  1.50000000E+00  8.00000000E-01  8.00000000E-01  1.50000000E+00
  1.50000000E+00  8.00000000E-01  8.00000000E-01  1.50000000E+00  1.50000000E+00
  8.00000000E-01  8.00000000E-01  1.50000000E+00  1.50000000E+00  8.00000000E-01
  8.00000000E-01  1.50000000E+00  1.50000000E+00  8.00000000E-01  8.00000000E-01
  1.50000000E+00  1.50000000E+00  8.00000000E-01  8.00000000E-01  1.50000000E+00
  1.50000000E+00  8.00000000E-01  8.00000000E-01  1.50000000E+00  1.50000000E+00
  8.00000000E-01  8.00000000E-01  1.50000000E+00  1.50000000E+00  8.00000000E-01
  8.00000000E-01  1.50000000E+00  1.50000000E+00  8.00000000E-01  8.00000000E-01
  1.50000000E+00  1.50000000E+00  8.00000000E-01  8.00000000E-01  1.50000000E+00
  1.50000000E+00  8.00000000E-01  8.00000000E-01  1.50000000E+00  1.50000000E+00
  8.00000000E-01  8.00000000E-01  1.50000000E+00  1.50000000E+00  8.00000000E-01
  8.00000000E-01  1.50000000E+00  1.50000000E+00  8.00000000E-01  8.00000000E-01
  1.50000000E+00  1.50000000E+00  8.00000000E-01  8.00000000E-01  1.50000000E+00
  1.50000000E+00  8.00000000E-01  8.00000000E-01  1.50000000E+00  1.50000000E+00
  8.00000000E-01  8.00000000E-01  1.50000000E+00  1.50000000E+00  8.00000000E-01
  8.00000000E-01  1.50000000E+00  1.50000000E+00  8.00000000E-01  8.00000000E-01
  1.50000000E+00  1.50000000E+00  8.00000000E-01  8.00000000E-01  1.50000000E+00
  1.50000000E+00  8.00000000E-01  8.00000000E-01  1.50000000E+00  1.50000000E+00
  8.00000000E-01  8.00000000E-01  1.50000000E+00  1.50000000E+00  8.00000000E-01
  8.00000000E-01  1.50000000E+00  1.50000000E+00  8.00000000E-01  8.00000000E-01
  1.50000000E+00  1.50000000E+00  8.00000000E-01  8.00000000E-01  1.50000000E+00
  1.50000000E+00  8.00000000E-01  8.00000000E-01  1.50000000E+00  1.50000000E+00
  8.00000000E-01  8.00000000E-01  1.50000000E+00  1.50000000E+00  8.00000000E-01
  8.00000000E-01  1.50000000E+00  1.50000000E+00  8.00000000E-01  8.00000000E-01
  1.50000000E+00  1.50000000E+00  8.00000000E-01  8.00000000E-01  1.50000000E+00
  1.50000000E+00  8.00000000E-01  8.00000000E-01  1.50000000E+00  1.50000000E+00
  8.00000000E-01  8.00000000E-01  1.50000000E+00  1.50000000E+00  8.00000000E-01
  8.00000000E-01  1.50000000E+00  1.50000000E+00  8.00000000E-01  8.00000000E-01
  1.50000000E+00  1.50000000E+00  8.00000000E-01  8.00000000E-01  1.50000000E+00
  1.50000000E+00  8.00000000E-01  8.00000000E-01  1.50000000E+00  1.50000000E+00
  8.00000000E-01  8.00000000E-01  1.50000000E+00  1.50000000E+00  8.00000000E-01
  8.00000000E-01  1.50000000E+00  1.50000000E+00  8.00000000E-01  8.00000000E-01
  1.50000000E+00  1.50000000E+00  8.00000000E-01  8.00000000E-01  1.50000000E+00
  1.50000000E+00  8.00000000E-01  8.00000000E-01  1.50000000E+00  1.50000000E+00
  8.00000000E-01  8.00000000E-01  1.50000000E+00  1.50000000E+00  8.00000000E-01
  8.00000000E-01  1.50000000E+00  1.50000000E+00  8.00000000E-01  8.00000000E-01
  1.50000000E+00  1.50000000E+00  8.00000000E-01  8.00000000E-01  1.50000000E+00
  1.50000000E+00  8.00000000E-01  8.00000000E-01  1.50000000E+00  1.50000000E+00
  8.00000000E-01  8.00000000E-01  1.50000000E+00  1.50000000E+00  8.00000000E-01
  8.00000000E-01  1.50000000E+00  1.50000000E+00  8.00000000E-01  8.00000000E-01
  1.50000000E+00  1.50000000E+00  8.00000000E-01  8.00000000E-01  1.50000000E+00
  1.50000000E+00  8.00000000E-01  8.00000000E-01  1.50000000E+00  1.50000000E+00
  8.00000000E-01  8.00000000E-01  1.50000000E+00  1.50000000E+00  8.00000000E-01
  8.00000000E-01  1.50000000E+00  1.50000000E+00  8.00000000E-01  8.00000000E-01
  1.50000000E+00  1.50000000E+00  8.00000000E-01  8.00000000E-01  1.50000000E+00
  1.50000000E+00  8.00000000E-01  8.00000000E-01  1.50000000E+00  1.50000000E+00
  8.00000000E-01  8.00000000E-01  1.50000000E+00  1.50000000E+00  8.00000000E-01
  8.00000000E-01  1.50000000E+00  1.50000000E+00  8.00000000E-01  8.00000000E-01
  1.50000000E+00  1.50000000E+00  8.00000000E-01  8.00000000E-01  1.50000000E+00
  1.50000000E+00  8.00000000E-01  8.00000000E-01  1.50000000E+00  1.50000000E+00
  8.00000000E-01  8.00000000E-01  1.50000000E+00  1.50000000E+00  8.00000000E-01
  8.00000000E-01  1.50000000E+00  1.50000000E+00  8.00000000E-01  8.00000000E-01
  1.50000000E+00  1.50000000E+00  8.00000000E-01  8.00000000E-01  1.50000000E+00
  1.50000000E+00  8.00000000E-01  8.00000000E-01  1.50000000E+00  1.50000000E+00
  8.00000000E-01  8.00000000E-01  1.50000000E+00  1.50000000E+00  8.00000000E-01
  8.00000000E-01  1.50000000E+00  1.50000000E+00  8.00000000E-01  8.00000000E-01
  1.50000000E+00  1.50000000E+00  8.00000000E-01  8.00000000E-01  1.50000000E+00
  1.50000000E+00  8.00000000E-01  8.00000000E-01  1.50000000E+00  1.50000000E+00
  8.00000000E-01  8.00000000E-01  1.50000000E+00  1.50000000E+00  8.00000000E-01
  8.00000000E-01  1.50000000E+00  1.50000000E+00  8.00000000E-01  8.00000000E-01
  1.50000000E+00  1.50000000E+00  8.00000000E-01  8.00000000E-01  1.50000000E+00
  1.50000000E+00  8.00000000E-01  8.00000000E-01  1.50000000E+00  1.50000000E+00
  8.00000000E-01  8.00000000E-01  1.50000000E+00  1.50000000E+00  8.00000000E-01
  8.00000000E-01  1.50000000E+00  1.50000000E+00  8.00000000E-01  8.00000000E-01
  1.50000000E+00  1.50000000E+00  8.00000000E-01  8.00000000E-01  1.50000000E+00
  1.50000000E+00  8.00000000E-01  8.00000000E-01  1.50000000E+00  1.50000000E+00
  8.00000000E-01  8.00000000E-01  1.50000000E+00  1.50000000E+00  8.00000000E-01
  8.00000000E-01  1.50000000E+00  1.50000000E+00  8.00000000E-01  8.00000000E-01
  1.50000000E+00  1.50000000E+00  8.00000000E-01  8.00000000E-01  1.50000000E+00
  1.50000000E+00  8.00000000E-01  8.00000000E-01  1.50000000E+00  1.50000000E+00
  8.00000000E-01  8.00000000E-01  1.50000000E+00  1.50000000E+00  8.00000000E-01
  8.00000000E-01  1.50000000E+00  1.50000000E+00  8.00000000E-01  8.00000000E-01
  1.50000000E+00  1.50000000E+00  8.00000000E-01  8.00000000E-01  1.50000000E+00
  1.50000000E+00  8.00000000E-01  8.00000000E-01  1.50000000E+00  1.50000000E+00
  8.00000000E-01  8.00000000E-01  1.50000000E+00  1.50000000E+00  8.00000000E-01
  8.00000000E-01  1.50000000E+00  1.50000000E+00  8.00000000E-01  8.00000000E-01
  1.50000000E+00  1.50000000E+00  8.00000000E-01  8.00000000E-01  1.50000000E+00
  1.50000000E+00  8.00000000E-01  8.00000000E-01  1.50000000E+00  1.50000000E+00
  8.00000000E-01  8.00000000E-01  1.50000000E+00  1.50000000E+00  8.00000000E-01
  8.00000000E-01  1.50000000E+00  1.50000000E+00  8.00000000E-01  8.00000000E-01
  1.50000000E+00  1.50000000E+00  8.00000000E-01  8.00000000E-01  1.50000000E+00
  1.50000000E+00  8.00000000E-01  8.00000000E-01  1.50000000E+00  1.50000000E+00
  8.00000000E-01  8.00000000E-01  1.50000000E+00  1.50000000E+00  8.00000000E-01
  8.00000000E-01  1.50000000E+00  1.50000000E+00  8.00000000E-01  8.00000000E-01
  1.50000000E+00  1.50000000E+00  8.00000000E-01  8.00000000E-01  1.50000000E+00
  1.50000000E+00  8.00000000E-01  8.00000000E-01  1.50000000E+00  1.50000000E+00
  8.00000000E-01  8.00000000E-01  1.50000000E+00  1.50000000E+00  8.00000000E-01
  8.00000000E-01  1.50000000E+00  1.50000000E+00  8.00000000E-01  8.00000000E-01
  1.50000000E+00  1.50000000E+00  8.00000000E-01  8.00000000E-01  1.50000000E+00
  1.50000000E+00  8.00000000E-01  8.00000000E-01  1.50000000E+00  1.50000000E+00
  8.00000000E-01  8.00000000E-01  1.50000000E+00  1.50000000E+00  8.00000000E-01
  8.00000000E-01  1.50000000E+00  1.50000000E+00  8.00000000E-01  8.00000000E-01
  1.50000000E+00  1.50000000E+00  8.00000000E-01  8.00000000E-01  1.50000000E+00
  1.50000000E+00  8.00000000E-01  8.00000000E-01  1.50000000E+00  1.50000000E+00
  8.00000000E-01  8.00000000E-01  1.50000000E+00  1.50000000E+00  8.00000000E-01
  8.00000000E-01  1.50000000E+00  1.50000000E+00  8.00000000E-01  8.00000000E-01
  1.50000000E+00  1.50000000E+00  8.00000000E-01  8.00000000E-01  1.50000000E+00
  1.50000000E+00  8.00000000E-01  8.00000000E-01  1.50000000E+00  1.50000000E+00
  8.00000000E-01  8.00000000E-01  1.50000000E+00  1.50000000E+00  8.00000000E-01
  8.00000000E-01  1.50000000E+00  1.50000000E+00  8.00000000E-01  8.00000000E-01
  1.50000000E+00  1.50000000E+00  8.00000000E-01  8.00000000E-01  1.50000000E+00
  1.50000000E+00  8.00000000E-01  8.00000000E-01  1.50000000E+00  1.50000000E+00
  8.00000000E-01  8.00000000E-01  1.50000000E+00  1.50000000E+00  8.00000000E-01
  8.00000000E-01  1.50000000E+00  1.50000000E+00  8.00000000E-01  8.00000000E-01
  1.50000000E+00  1.50000000E+00  8.00000000E-01  8.00000000E-01  1.50000000E+00
  1.50000000E+00  8.00000000E-01  8.00000000E-01  1.50000000E+00  1.50000000E+00
  8.00000000E-01  8.00000000E-01  1.50000000E+00  1.50000000E+00  8.00000000E-01
  8.00000000E-01  1.50000000E+00  1.50000000E+00  8.00000000E-01  8.00000000E-01
  1.50000000E+00  1.50000000E+00  8.00000000E-01  8.00000000E-01  1.50000000E+00
  1.50000000E+00  8.00000000E-01  8.00000000E-01  1.50000000E+00  1.50000000E+00
  8.00000000E-01  8.00000000E-01  1.50000000E+00  1.50000000E+00  8.00000000E-01
  8.00000000E-01  1.50000000E+00  1.50000000E+00  8.00000000E-01  8.00000000E-01
  1.50000000E+00  1.50000000E+00  8.00000000E-01  8.00000000E-01  1.50000000E+00
  1.50000000E+00  8.00000000E-01  8.00000000E-01  1.50000000E+00  1.50000000E+00
  8.00000000E-01  8.00000000E-01  1.50000000E+00  1.50000000E+00  8.00000000E-01
  8.00000000E-01  1.50000000E+00  1.50000000E+00  8.00000000E-01  8.00000000E-01
  1.50000000E+00  1.50000000E+00  8.00000000E-01  8.00000000E-01  1.50000000E+00
  1.50000000E+00  8.00000000E-01  8.00000000E-01  1.50000000E+00  1.50000000E+00
  8.00000000E-01  8.00000000E-01  1.50000000E+00  1.50000000E+00  8.00000000E-01
  8.00000000E-01  1.50000000E+00  1.50000000E+00  8.00000000E-01  8.00000000E-01
  1.50000000E+00  1.50000000E+00  8.00000000E-01  8.00000000E-01  1.50000000E+00
  1.50000000E+00  8.00000000E-01  8.00000000E-01  1.50000000E+00  1.50000000E+00
  8.00000000E-01  8.00000000E-01  1.50000000E+00  1.50000000E+00  8.00000000E-01
  8.00000000E-01  1.50000000E+00  1.50000000E+00  8.00000000E-01  8.00000000E-01
  1.50000000E+00  1.50000000E+00  8.00000000E-01  8.00000000E-01  1.50000000E+00
  1.50000000E+00  8.00000000E-01  8.00000000E-01  1.50000000E+00  1.50000000E+00
  8.00000000E-01  8.00000000E-01  1.50000000E+00  1.50000000E+00  8.00000000E-01
  8.00000000E-01  1.50000000E+00  1.50000000E+00  8.00000000E-01  8.00000000E-01
  1.50000000E+00  1.50000000E+00  8.00000000E-01  8.00000000E-01  1.50000000E+00
  1.50000000E+00  8.00000000E-01  8.00000000E-01  1.50000000E+00  1.50000000E+00
  8.00000000E-01  8.00000000E-01  1.50000000E+00  1.50000000E+00  8.00000000E-01
  8.00000000E-01  1.50000000E+00  1.50000000E+00  8.00000000E-01  8.00000000E-01
  1.50000000E+00  1.50000000E+00  8.00000000E-01  8.00000000E-01  1.50000000E+00
  1.50000000E+00  8.00000000E-01  8.00000000E-01  1.50000000E+00  1.50000000E+00
  8.00000000E-01  8.00000000E-01  1.50000000E+00  1.50000000E+00  8.00000000E-01
  8.00000000E-01  1.50000000E+00  1.50000000E+00  8.00000000E-01  8.00000000E-01
  1.50000000E+00  1.50000000E+00  8.00000000E-01  8.00000000E-01  1.50000000E+00
  1.50000000E+00  8.00000000E-01  8.00000000E-01  1.50000000E+00  1.50000000E+00
  8.00000000E-01  8.00000000E-01  1.50000000E+00  1.50000000E+00  8.00000000E-01
  8.00000000E-01  1.50000000E+00  1.50000000E+00  8.00000000E-01  8.00000000E-01
  1.50000000E+00  1.50000000E+00  8.00000000E-01  8.00000000E-01  1.50000000E+00
  1.50000000E+00  8.00000000E-01  8.00000000E-01  1.50000000E+00  1.50000000E+00
  8.00000000E-01  8.00000000E-01  1.50000000E+00  1.50000000E+00  8.00000000E-01
  8.00000000E-01  1.50000000E+00  1.50000000E+00  8.00000000E-01  8.00000000E-01
  1.50000000E+00  1.50000000E+00  8.00000000E-01  8.00000000E-01  1.50000000E+00
  1.50000000E+00  8.00000000E-01  8.00000000E-01  1.50000000E+00  1.50000000E+00
  8.00000000E-01  8.00000000E-01  1.50000000E+00  1.50000000E+00  8.00000000E-01
  8.00000000E-01  1.50000000E+00  1.50000000E+00  8.00000000E-01  8.00000000E-01
  1.50000000E+00  1.50000000E+00  8.00000000E-01  8.00000000E-01  1.50000000E+00
  1.50000000E+00  8.00000000E-01  8.00000000E-01  1.50000000E+00  1.50000000E+00
  8.00000000E-01  8.00000000E-01  1.50000000E+00  1.50000000E+00  8.00000000E-01
  8.00000000E-01  1.50000000E+00  1.50000000E+00  8.00000000E-01  8.00000000E-01
  1.50000000E+00  1.50000000E+00  8.00000000E-01  8.00000000E-01  1.50000000E+00
  1.50000000E+00  8.00000000E-01  8.00000000E-01  1.50000000E+00  1.50000000E+00
  8.00000000E-01  8.00000000E-01  1.50000000E+00  1.50000000E+00  8.00000000E-01
  8.00000000E-01  1.50000000E+00  1.50000000E+00  8.00000000E-01  8.00000000E-01
  1.50000000E+00  1.50000000E+00  8.00000000E-01  8.00000000E-01  1.50000000E+00
  1.50000000E+00  8.00000000E-01  8.00000000E-01  1.50000000E+00  1.50000000E+00
  8.00000000E-01  8.00000000E-01  1.50000000E+00  1.50000000E+00  8.00000000E-01
  8.00000000E-01  1.50000000E+00  1.50000000E+00  8.00000000E-01  8.00000000E-01
  1.50000000E+00  1.50000000E+00  8.00000000E-01  8.00000000E-01  1.50000000E+00
  1.50000000E+00  8.00000000E-01  8.00000000E-01  1.50000000E+00  1.50000000E+00
  8.00000000E-01  8.00000000E-01  1.50000000E+00  1.50000000E+00  8.00000000E-01
  8.00000000E-01  1.50000000E+00  1.50000000E+00  8.00000000E-01  8.00000000E-01
  1.50000000E+00  1.50000000E+00  8.00000000E-01  8.00000000E-01  1.50000000E+00
  1.50000000E+00  8.00000000E-01  8.00000000E-01  1.50000000E+00  1.50000000E+00
  8.00000000E-01  8.00000000E-01  1.50000000E+00  1.50000000E+00  8.00000000E-01
  8.00000000E-01  1.50000000E+00  1.50000000E+00  8.00000000E-01  8.00000000E-01
  1.50000000E+00  1.50000000E+00  8.00000000E-01  8.00000000E-01  1.50000000E+00
  1.50000000E+00  8.00000000E-01  8.00000000E-01  1.50000000E+00  1.50000000E+00
  8.00000000E-01  8.00000000E-01  1.50000000E+00  1.50000000E+00  8.00000000E-01
  8.00000000E-01  1.50000000E+00  1.50000000E+00  8.00000000E-01  8.00000000E-01
  1.50000000E+00  1.50000000E+00  8.00000000E-01  8.00000000E-01  1.50000000E+00
  1.50000000E+00  8.00000000E-01  8.00000000E-01  1.50000000E+00  1.50000000E+00
  8.00000000E-01  8.00000000E-01  1.50000000E+00  1.50000000E+00  8.00000000E-01
  8.00000000E-01  1.50000000E+00  1.50000000E+00  8.00000000E-01  8.00000000E-01
  1.50000000E+00  1.50000000E+00  8.00000000E-01  8.00000000E-01  1.50000000E+00
  1.50000000E+00  8.00000000E-01  8.00000000E-01  1.50000000E+00  1.50000000E+00
  8.00000000E-01  8.00000000E-01  1.50000000E+00  1.50000000E+00  8.00000000E-01
  8.00000000E-01  1.50000000E+00  1.50000000E+00  8.00000000E-01  8.00000000E-01
  1.50000000E+00  1.50000000E+00  8.00000000E-01  8.00000000E-01  1.50000000E+00
  1.50000000E+00  8.00000000E-01  8.00000000E-01  1.50000000E+00  1.50000000E+00
  8.00000000E-01  8.00000000E-01  1.50000000E+00  1.50000000E+00  8.00000000E-01
  8.00000000E-01  1.50000000E+00  1.50000000E+00  8.00000000E-01  8.00000000E-01
  1.50000000E+00  1.50000000E+00  8.00000000E-01  8.00000000E-01  1.50000000E+00
  1.50000000E+00  8.00000000E-01  8.00000000E-01  1.50000000E+00  1.50000000E+00
  8.00000000E-01  8.00000000E-01  1.50000000E+00  1.50000000E+00  8.00000000E-01
  8.00000000E-01  1.50000000E+00  1.50000000E+00  8.00000000E-01  8.00000000E-01
  1.50000000E+00  1.50000000E+00  8.00000000E-01  8.00000000E-01  1.50000000E+00
  1.50000000E+00  8.00000000E-01  8.00000000E-01  1.50000000E+00  1.50000000E+00
  8.00000000E-01  8.00000000E-01  1.50000000E+00  1.50000000E+00  8.00000000E-01
  8.00000000E-01  1.50000000E+00  1.50000000E+00  8.00000000E-01  8.00000000E-01
  1.50000000E+00  1.50000000E+00  8.00000000E-01  8.00000000E-01  1.50000000E+00
  1.50000000E+00  8.00000000E-01  8.00000000E-01  1.50000000E+00  1.50000000E+00
  8.00000000E-01  8.00000000E-01  1.50000000E+00  1.50000000E+00  8.00000000E-01
  8.00000000E-01  1.50000000E+00  1.50000000E+00  8.00000000E-01  8.00000000E-01
  1.50000000E+00  1.50000000E+00  8.00000000E-01  8.00000000E-01  1.50000000E+00
  1.50000000E+00  8.00000000E-01  8.00000000E-01  1.50000000E+00  1.50000000E+00
  8.00000000E-01  8.00000000E-01  1.50000000E+00  1.50000000E+00  8.00000000E-01
  8.00000000E-01  1.50000000E+00  1.50000000E+00  8.00000000E-01  8.00000000E-01
  1.50000000E+00  1.50000000E+00  8.00000000E-01  8.00000000E-01  1.50000000E+00
  1.50000000E+00  8.00000000E-01  8.00000000E-01  1.50000000E+00  1.50000000E+00
  8.00000000E-01  8.00000000E-01  1.50000000E+00  1.50000000E+00  8.00000000E-01
  8.00000000E-01  1.50000000E+00  1.50000000E+00  8.00000000E-01  8.00000000E-01
  1.50000000E+00  1.50000000E+00  8.00000000E-01  8.00000000E-01  1.50000000E+00
  1.50000000E+00  8.00000000E-01  8.00000000E-01  1.50000000E+00  1.50000000E+00
  8.00000000E-01  8.00000000E-01  1.50000000E+00  1.50000000E+00  8.00000000E-01
  8.00000000E-01  1.50000000E+00  1.50000000E+00  8.00000000E-01  8.00000000E-01
  1.50000000E+00  1.50000000E+00  8.00000000E-01  8.00000000E-01  1.50000000E+00
  1.50000000E+00  8.00000000E-01  8.00000000E-01  1.50000000E+00  1.50000000E+00
  8.00000000E-01  8.00000000E-01  1.50000000E+00  1.50000000E+00  8.00000000E-01
  8.00000000E-01  1.50000000E+00  1.50000000E+00  8.00000000E-01  8.00000000E-01
  1.50000000E+00  1.50000000E+00  8.00000000E-01  8.00000000E-01  1.50000000E+00
  1.50000000E+00  8.00000000E-01  8.00000000E-01  1.50000000E+00  1.50000000E+00
  8.00000000E-01  8.00000000E-01  1.50000000E+00  1.50000000E+00  8.00000000E-01
  8.00000000E-01  1.50000000E+00  1.50000000E+00  8.00000000E-01  8.00000000E-01
  1.50000000E+00  1.50000000E+00  8.00000000E-01  8.00000000E-01  1.50000000E+00
  1.50000000E+00  8.00000000E-01  8.00000000E-01  1.50000000E+00  1.50000000E+00
  8.00000000E-01  8.00000000E-01  1.50000000E+00  1.50000000E+00  8.00000000E-01
  8.00000000E-01  1.50000000E+00  1.50000000E+00  8.00000000E-01  8.00000000E-01
  1.50000000E+00  1.50000000E+00  8.00000000E-01  8.00000000E-01  1.50000000E+00
  1.50000000E+00  8.00000000E-01  8.00000000E-01  1.50000000E+00  1.50000000E+00
  8.00000000E-01  8.00000000E-01  1.50000000E+00  1.50000000E+00  8.00000000E-01
  8.00000000E-01  1.50000000E+00  1.50000000E+00  8.00000000E-01  8.00000000E-01
  1.50000000E+00  1.50000000E+00  8.00000000E-01  8.00000000E-01  1.50000000E+00
  1.50000000E+00  8.00000000E-01  8.00000000E-01  1.50000000E+00  1.50000000E+00
  8.00000000E-01  8.00000000E-01  1.50000000E+00  1.50000000E+00  8.00000000E-01
  8.00000000E-01  1.50000000E+00  1.50000000E+00  8.00000000E-01  8.00000000E-01
  1.50000000E+00  1.50000000E+00  8.00000000E-01  8.00000000E-01  1.50000000E+00
  1.50000000E+00  8.00000000E-01  8.00000000E-01  1.50000000E+00  1.50000000E+00
  8.00000000E-01  8.00000000E-01  1.50000000E+00  1.50000000E+00  8.00000000E-01
  8.00000000E-01  1.50000000E+00  1.50000000E+00  8.00000000E-01  8.00000000E-01
  1.50000000E+00  1.50000000E+00  8.00000000E-01  8.00000000E-01  1.50000000E+00
  1.50000000E+00  8.00000000E-01  8.00000000E-01  1.50000000E+00  1.50000000E+00
  8.00000000E-01  8.00000000E-01  1.50000000E+00  1.50000000E+00  8.00000000E-01
  8.00000000E-01  1.50000000E+00  1.50000000E+00  8.00000000E-01  8.00000000E-01
  1.50000000E+00  1.50000000E+00  8.00000000E-01  8.00000000E-01  1.50000000E+00
  1.50000000E+00  8.00000000E-01  8.00000000E-01  1.50000000E+00  1.50000000E+00
  8.00000000E-01  8.00000000E-01  1.50000000E+00  1.50000000E+00  8.00000000E-01
  8.00000000E-01  1.50000000E+00  1.50000000E+00  8.00000000E-01  8.00000000E-01
  1.50000000E+00  1.50000000E+00  8.00000000E-01  8.00000000E-01  1.50000000E+00
  1.50000000E+00  8.00000000E-01  8.00000000E-01  1.50000000E+00  1.50000000E+00
  8.00000000E-01  8.00000000E-01  1.50000000E+00  1.50000000E+00  8.00000000E-01
  8.00000000E-01  1.50000000E+00  1.50000000E+00  8.00000000E-01  8.00000000E-01
  1.50000000E+00  1.50000000E+00  8.00000000E-01  8.00000000E-01  1.50000000E+00
  1.50000000E+00  8.00000000E-01  8.00000000E-01  1.50000000E+00  1.50000000E+00
  8.00000000E-01  8.00000000E-01  1.50000000E+00  1.50000000E+00  8.00000000E-01
  8.00000000E-01  1.50000000E+00  1.50000000E+00  8.00000000E-01  8.00000000E-01
  1.50000000E+00  1.50000000E+00  8.00000000E-01  8.00000000E-01  1.50000000E+00
  1.50000000E+00  8.00000000E-01  8.00000000E-01  1.50000000E+00  1.50000000E+00
  8.00000000E-01  8.00000000E-01  1.50000000E+00  1.50000000E+00  8.00000000E-01
  8.00000000E-01  1.50000000E+00  1.50000000E+00  8.00000000E-01  8.00000000E-01
  1.50000000E+00  1.50000000E+00  8.00000000E-01  8.00000000E-01  1.50000000E+00
  1.50000000E+00  8.00000000E-01  8.00000000E-01  1.50000000E+00  1.50000000E+00
  8.00000000E-01  8.00000000E-01  1.50000000E+00  1.50000000E+00  8.00000000E-01
  8.00000000E-01  1.50000000E+00  1.50000000E+00  8.00000000E-01  8.00000000E-01
  1.50000000E+00  1.50000000E+00  8.00000000E-01  8.00000000E-01  1.50000000E+00
  1.50000000E+00  8.00000000E-01  8.00000000E-01  1.50000000E+00  1.50000000E+00
  8.00000000E-01  8.00000000E-01  1.50000000E+00  1.50000000E+00  8.00000000E-01
  8.00000000E-01  1.50000000E+00  1.50000000E+00  8.00000000E-01  8.00000000E-01
  1.50000000E+00  1.50000000E+00  8.00000000E-01  8.00000000E-01  1.50000000E+00
  1.50000000E+00  8.00000000E-01  8.00000000E-01  1.50000000E+00  1.50000000E+00
  8.00000000E-01  8.00000000E-01  1.50000000E+00  1.50000000E+00  8.00000000E-01
  8.00000000E-01  1.50000000E+00  1.50000000E+00  8.00000000E-01  8.00000000E-01
  1.50000000E+00  1.50000000E+00  8.00000000E-01  8.00000000E-01  1.50000000E+00
  1.50000000E+00  8.00000000E-01  8.00000000E-01  1.50000000E+00  1.50000000E+00
  8.00000000E-01  8.00000000E-01  1.50000000E+00  1.50000000E+00  8.00000000E-01
  8.00000000E-01  1.50000000E+00  1.50000000E+00  8.00000000E-01  8.00000000E-01
  1.50000000E+00  1.50000000E+00  8.00000000E-01  8.00000000E-01  1.50000000E+00
  1.50000000E+00  8.00000000E-01  8.00000000E-01  1.50000000E+00  1.50000000E+00
  8.00000000E-01  8.00000000E-01  1.50000000E+00  1.50000000E+00  8.00000000E-01
  8.00000000E-01  1.50000000E+00  1.50000000E+00  8.00000000E-01  8.00000000E-01
  1.50000000E+00  1.50000000E+00  8.00000000E-01  8.00000000E-01  1.50000000E+00
  1.50000000E+00  8.00000000E-01  8.00000000E-01  1.50000000E+00  1.50000000E+00
  8.00000000E-01  8.00000000E-01  1.50000000E+00  1.50000000E+00  8.00000000E-01
  8.00000000E-01  1.50000000E+00  1.50000000E+00  8.00000000E-01  8.00000000E-01
  1.50000000E+00  1.50000000E+00  8.00000000E-01  8.00000000E-01  1.50000000E+00
  1.50000000E+00  8.00000000E-01  8.00000000E-01  1.50000000E+00  1.50000000E+00
  8.00000000E-01  8.00000000E-01  1.50000000E+00  1.50000000E+00  8.00000000E-01
  8.00000000E-01  1.50000000E+00  1.50000000E+00  8.00000000E-01  8.00000000E-01
  1.50000000E+00  1.50000000E+00  8.00000000E-01  8.00000000E-01  1.50000000E+00
  1.50000000E+00  8.00000000E-01  8.00000000E-01  1.50000000E+00  1.50000000E+00
  8.00000000E-01  8.00000000E-01  1.50000000E+00  1.50000000E+00  8.00000000E-01
  8.00000000E-01  1.50000000E+00  1.50000000E+00  8.00000000E-01  8.00000000E-01
  1.50000000E+00  1.50000000E+00  8.00000000E-01  8.00000000E-01  1.50000000E+00
  1.50000000E+00  8.00000000E-01  8.00000000E-01  1.50000000E+00  1.50000000E+00
  8.00000000E-01  8.00000000E-01  1.50000000E+00  1.50000000E+00  8.00000000E-01
  8.00000000E-01  1.50000000E+00  1.50000000E+00  8.00000000E-01  8.00000000E-01
  1.50000000E+00  1.50000000E+00  8.00000000E-01  8.00000000E-01  1.50000000E+00
  1.50000000E+00  8.00000000E-01  8.00000000E-01  1.50000000E+00  1.50000000E+00
  8.00000000E-01  8.00000000E-01  1.50000000E+00  1.50000000E+00  8.00000000E-01
  8.00000000E-01  1.50000000E+00  1.50000000E+00  8.00000000E-01  8.00000000E-01
  1.50000000E+00  1.50000000E+00  8.00000000E-01  8.00000000E-01  1.50000000E+00
  1.50000000E+00  8.00000000E-01  8.00000000E-01  1.50000000E+00  1.50000000E+00
  8.00000000E-01  8.00000000E-01  1.50000000E+00  1.50000000E+00  8.00000000E-01
  8.00000000E-01  1.50000000E+00  1.50000000E+00  8.00000000E-01  8.00000000E-01
  1.50000000E+00  1.50000000E+00  8.00000000E-01  8.00000000E-01  1.50000000E+00
  1.50000000E+00  8.00000000E-01  8.00000000E-01  1.50000000E+00  1.50000000E+00
  8.00000000E-01  8.00000000E-01  1.50000000E+00  1.50000000E+00  8.00000000E-01
  8.00000000E-01  1.50000000E+00  1.50000000E+00  8.00000000E-01  8.00000000E-01
  1.50000000E+00  1.50000000E+00  8.00000000E-01  8.00000000E-01  1.50000000E+00
  1.50000000E+00  8.00000000E-01  8.00000000E-01  1.50000000E+00  1.50000000E+00
  8.00000000E-01  8.00000000E-01  1.50000000E+00  1.50000000E+00  8.00000000E-01
  8.00000000E-01  1.50000000E+00  1.50000000E+00  8.00000000E-01  8.00000000E-01
  1.50000000E+00  1.50000000E+00  8.00000000E-01  8.00000000E-01  1.50000000E+00
  1.50000000E+00  8.00000000E-01  8.00000000E-01  1.50000000E+00  1.50000000E+00
  8.00000000E-01  8.00000000E-01  1.50000000E+00  1.50000000E+00  8.00000000E-01
  8.00000000E-01  1.50000000E+00  1.50000000E+00  8.00000000E-01  8.00000000E-01
  1.50000000E+00  1.50000000E+00  8.00000000E-01  8.00000000E-01  1.50000000E+00
  1.50000000E+00  8.00000000E-01  8.00000000E-01  1.50000000E+00  1.50000000E+00
  8.00000000E-01  8.00000000E-01  1.50000000E+00  1.50000000E+00  8.00000000E-01
  8.00000000E-01  1.50000000E+00  1.50000000E+00  8.00000000E-01  8.00000000E-01
  1.50000000E+00  1.50000000E+00  8.00000000E-01  8.00000000E-01  1.50000000E+00
  1.50000000E+00  8.00000000E-01  8.00000000E-01  1.50000000E+00  1.50000000E+00
  8.00000000E-01  8.00000000E-01  1.50000000E+00  1.50000000E+00  8.00000000E-01
  8.00000000E-01  1.50000000E+00  1.50000000E+00  8.00000000E-01  8.00000000E-01
  1.50000000E+00  1.50000000E+00  8.00000000E-01  8.00000000E-01  1.50000000E+00
  1.50000000E+00  8.00000000E-01  8.00000000E-01  1.50000000E+00  1.50000000E+00
  8.00000000E-01  8.00000000E-01  1.50000000E+00  1.50000000E+00  8.00000000E-01
  8.00000000E-01  1.50000000E+00  1.50000000E+00  8.00000000E-01  8.00000000E-01
  1.50000000E+00  1.50000000E+00  8.00000000E-01  8.00000000E-01  1.50000000E+00
  1.50000000E+00  8.00000000E-01  8.00000000E-01  1.50000000E+00  1.50000000E+00
  8.00000000E-01  8.00000000E-01  1.50000000E+00  1.50000000E+00  8.00000000E-01
  8.00000000E-01  1.50000000E+00  1.50000000E+00  8.00000000E-01  8.00000000E-01
  1.50000000E+00  1.50000000E+00  8.00000000E-01  8.00000000E-01  1.50000000E+00
  1.50000000E+00  8.00000000E-01  8.00000000E-01  1.50000000E+00  1.50000000E+00
  8.00000000E-01  8.00000000E-01  1.50000000E+00  1.50000000E+00  8.00000000E-01
  8.00000000E-01  1.50000000E+00  1.50000000E+00  8.00000000E-01  8.00000000E-01
  1.50000000E+00  1.50000000E+00  8.00000000E-01  8.00000000E-01  1.50000000E+00
  1.50000000E+00  8.00000000E-01  8.00000000E-01  1.50000000E+00  1.50000000E+00
  8.00000000E-01  8.00000000E-01  1.50000000E+00  1.50000000E+00  8.00000000E-01
  8.00000000E-01  1.50000000E+00  1.50000000E+00  8.00000000E-01  8.00000000E-01
  1.50000000E+00  1.50000000E+00  8.00000000E-01  8.00000000E-01  1.50000000E+00
  1.50000000E+00  8.00000000E-01  8.00000000E-01  1.50000000E+00  1.50000000E+00
  8.00000000E-01  8.00000000E-01  1.50000000E+00  1.50000000E+00  8.00000000E-01
  8.00000000E-01  1.50000000E+00  1.50000000E+00  8.00000000E-01  8.00000000E-01
  1.50000000E+00  1.50000000E+00  8.00000000E-01  8.00000000E-01  1.50000000E+00
  1.50000000E+00  8.00000000E-01  8.00000000E-01  1.50000000E+00  1.50000000E+00
  8.00000000E-01  8.00000000E-01  1.50000000E+00  1.50000000E+00  8.00000000E-01
  8.00000000E-01  1.50000000E+00  1.50000000E+00  8.00000000E-01  8.00000000E-01
  1.50000000E+00  1.50000000E+00  8.00000000E-01  8.00000000E-01  1.50000000E+00
  1.50000000E+00  8.00000000E-01  8.00000000E-01  1.50000000E+00  1.50000000E+00
  8.00000000E-01  8.00000000E-01  1.50000000E+00  1.50000000E+00  8.00000000E-01
  8.00000000E-01  1.50000000E+00  1.50000000E+00  8.00000000E-01  8.00000000E-01
  1.50000000E+00  1.50000000E+00  8.00000000E-01  8.00000000E-01  1.50000000E+00
  1.50000000E+00  8.00000000E-01  8.00000000E-01  1.50000000E+00  1.50000000E+00
  8.00000000E-01  8.00000000E-01  1.50000000E+00  1.50000000E+00  8.00000000E-01
  8.00000000E-01  1.50000000E+00  1.50000000E+00  8.00000000E-01  8.00000000E-01
  1.50000000E+00  1.50000000E+00  8.00000000E-01  8.00000000E-01  1.50000000E+00
  1.50000000E+00  8.00000000E-01  8.00000000E-01  1.50000000E+00  1.50000000E+00
  8.00000000E-01  8.00000000E-01  1.50000000E+00  1.50000000E+00  8.00000000E-01
  8.00000000E-01  1.50000000E+00  1.50000000E+00  8.00000000E-01  8.00000000E-01
  1.50000000E+00  1.50000000E+00  8.00000000E-01  8.00000000E-01  1.50000000E+00
  1.50000000E+00  8.00000000E-01  8.00000000E-01  1.50000000E+00  1.50000000E+00
  8.00000000E-01  8.00000000E-01  1.50000000E+00  1.50000000E+00  8.00000000E-01
  8.00000000E-01  1.50000000E+00  1.50000000E+00  8.00000000E-01  8.00000000E-01
  1.50000000E+00  1.50000000E+00  8.00000000E-01  8.00000000E-01  1.50000000E+00
  1.50000000E+00  8.00000000E-01  8.00000000E-01  1.50000000E+00  1.50000000E+00
  8.00000000E-01  8.00000000E-01  1.50000000E+00  1.50000000E+00  8.00000000E-01
  8.00000000E-01  1.50000000E+00  1.50000000E+00  8.00000000E-01  8.00000000E-01
  1.50000000E+00  1.50000000E+00  8.00000000E-01  8.00000000E-01  1.50000000E+00
  1.50000000E+00  8.00000000E-01  8.00000000E-01  1.50000000E+00  1.50000000E+00
  8.00000000E-01  8.00000000E-01  1.50000000E+00  1.50000000E+00  8.00000000E-01
  8.00000000E-01  1.50000000E+00  1.50000000E+00  8.00000000E-01  8.00000000E-01
  1.50000000E+00  1.50000000E+00  8.00000000E-01  8.00000000E-01  1.50000000E+00
  1.50000000E+00  8.00000000E-01  8.00000000E-01  1.50000000E+00  1.50000000E+00
  8.00000000E-01  8.00000000E-01  1.50000000E+00  1.50000000E+00  8.00000000E-01
  8.00000000E-01  1.50000000E+00  1.50000000E+00  8.00000000E-01  8.00000000E-01
  1.50000000E+00  1.50000000E+00  8.00000000E-01  8.00000000E-01  1.50000000E+00
  1.50000000E+00  8.00000000E-01  8.00000000E-01  1.50000000E+00  1.50000000E+00
  8.00000000E-01  8.00000000E-01  1.50000000E+00  1.50000000E+00  8.00000000E-01
  8.00000000E-01  1.50000000E+00  1.50000000E+00  8.00000000E-01  8.00000000E-01
  1.50000000E+00  1.50000000E+00  8.00000000E-01  8.00000000E-01  1.50000000E+00
  1.50000000E+00  8.00000000E-01  8.00000000E-01  1.50000000E+00  1.50000000E+00
  8.00000000E-01  8.00000000E-01  1.50000000E+00  1.50000000E+00  8.00000000E-01
  8.00000000E-01  1.50000000E+00  1.50000000E+00  8.00000000E-01  8.00000000E-01
  1.50000000E+00  1.50000000E+00  8.00000000E-01  8.00000000E-01  1.50000000E+00
  1.50000000E+00  8.00000000E-01  8.00000000E-01  1.50000000E+00  1.50000000E+00
  8.00000000E-01  8.00000000E-01  1.50000000E+00  1.50000000E+00  8.00000000E-01
  8.00000000E-01  1.50000000E+00  1.50000000E+00  8.00000000E-01  8.00000000E-01
  1.50000000E+00  1.50000000E+00  8.00000000E-01  8.00000000E-01  1.50000000E+00
  1.50000000E+00  8.00000000E-01  8.00000000E-01  1.50000000E+00  1.50000000E+00
  8.00000000E-01  8.00000000E-01  1.50000000E+00  1.50000000E+00  8.00000000E-01
  8.00000000E-01  1.50000000E+00  1.50000000E+00  8.00000000E-01  8.00000000E-01
  1.50000000E+00  1.50000000E+00  8.00000000E-01  8.00000000E-01  1.50000000E+00
  1.50000000E+00  8.00000000E-01  8.00000000E-01  1.50000000E+00  1.50000000E+00
  8.00000000E-01  8.00000000E-01  1.50000000E+00  1.50000000E+00  8.00000000E-01
  8.00000000E-01  1.50000000E+00  1.50000000E+00  8.00000000E-01  8.00000000E-01
  1.50000000E+00  1.50000000E+00  8.00000000E-01  8.00000000E-01  1.50000000E+00
  1.50000000E+00  8.00000000E-01  8.00000000E-01  1.50000000E+00  1.50000000E+00
  8.00000000E-01  8.00000000E-01  1.50000000E+00  1.50000000E+00  8.00000000E-01
  8.00000000E-01  1.50000000E+00  1.50000000E+00  8.00000000E-01  8.00000000E-01
  1.50000000E+00  1.50000000E+00  8.00000000E-01  8.00000000E-01  1.50000000E+00
  1.50000000E+00  8.00000000E-01  8.00000000E-01  1.50000000E+00  1.50000000E+00
  8.00000000E-01  8.00000000E-01  1.50000000E+00  1.50000000E+00  8.00000000E-01
  8.00000000E-01  1.50000000E+00  1.50000000E+00  8.00000000E-01  8.00000000E-01
  1.50000000E+00  1.50000000E+00  8.00000000E-01  8.00000000E-01  1.50000000E+00
  1.50000000E+00  8.00000000E-01  8.00000000E-01  1.50000000E+00  1.50000000E+00
  8.00000000E-01  8.00000000E-01  1.50000000E+00  1.50000000E+00  8.00000000E-01
  8.00000000E-01  1.50000000E+00  1.50000000E+00  8.00000000E-01  8.00000000E-01
  1.50000000E+00  1.50000000E+00  8.00000000E-01  8.00000000E-01  1.50000000E+00
  1.50000000E+00  8.00000000E-01  8.00000000E-01  1.50000000E+00  1.50000000E+00
  8.00000000E-01  8.00000000E-01  1.50000000E+00  1.50000000E+00  8.00000000E-01
  8.00000000E-01  1.50000000E+00  1.50000000E+00  8.00000000E-01  8.00000000E-01
  1.50000000E+00  1.50000000E+00  8.00000000E-01  8.00000000E-01  1.50000000E+00
  1.50000000E+00  8.00000000E-01  8.00000000E-01  1.50000000E+00  1.50000000E+00
  8.00000000E-01  8.00000000E-01  1.50000000E+00  1.50000000E+00  8.00000000E-01
  8.00000000E-01  1.50000000E+00  1.50000000E+00  8.00000000E-01  8.00000000E-01
  1.50000000E+00  1.50000000E+00  8.00000000E-01  8.00000000E-01  1.50000000E+00
  1.50000000E+00  8.00000000E-01  8.00000000E-01  1.50000000E+00  1.50000000E+00
  8.00000000E-01  8.00000000E-01  1.50000000E+00  1.50000000E+00  8.00000000E-01
  8.00000000E-01  1.50000000E+00  1.50000000E+00  8.00000000E-01  8.00000000E-01
  1.50000000E+00  1.50000000E+00  8.00000000E-01  8.00000000E-01  1.50000000E+00
  1.50000000E+00  8.00000000E-01  8.00000000E-01  1.50000000E+00  1.50000000E+00
  8.00000000E-01  8.00000000E-01  1.50000000E+00  1.50000000E+00  8.00000000E-01
  8.00000000E-01  1.50000000E+00  1.50000000E+00  8.00000000E-01  8.00000000E-01
  1.50000000E+00  1.50000000E+00  8.00000000E-01  8.00000000E-01  1.50000000E+00
  1.50000000E+00  8.00000000E-01  8.00000000E-01  1.50000000E+00  1.50000000E+00
  8.00000000E-01  8.00000000E-01  1.50000000E+00  1.50000000E+00  8.00000000E-01
  8.00000000E-01  1.50000000E+00  1.50000000E+00  8.00000000E-01  8.00000000E-01
  1.50000000E+00  1.50000000E+00  8.00000000E-01  8.00000000E-01  1.50000000E+00
  1.50000000E+00  8.00000000E-01  8.00000000E-01  1.50000000E+00  1.50000000E+00
  8.00000000E-01  8.00000000E-01  1.50000000E+00  1.50000000E+00  8.00000000E-01
  8.00000000E-01  1.50000000E+00  1.50000000E+00  8.00000000E-01  8.00000000E-01
  1.50000000E+00  1.50000000E+00  8.00000000E-01  8.00000000E-01  1.50000000E+00
  1.50000000E+00  8.00000000E-01  8.00000000E-01  1.50000000E+00  1.50000000E+00
  8.00000000E-01  8.00000000E-01  1.50000000E+00  1.50000000E+00  8.00000000E-01
  8.00000000E-01  1.50000000E+00  1.50000000E+00  8.00000000E-01  8.00000000E-01
  1.50000000E+00  1.50000000E+00  8.00000000E-01  8.00000000E-01  1.50000000E+00
  1.50000000E+00  8.00000000E-01  8.00000000E-01  1.50000000E+00  1.50000000E+00
  8.00000000E-01  8.00000000E-01  1.50000000E+00  1.50000000E+00  8.00000000E-01
  8.00000000E-01  1.50000000E+00  1.50000000E+00  8.00000000E-01  8.00000000E-01
  1.50000000E+00  1.50000000E+00  8.00000000E-01  8.00000000E-01  1.50000000E+00
  1.50000000E+00  8.00000000E-01  8.00000000E-01  1.50000000E+00  1.50000000E+00
  8.00000000E-01  8.00000000E-01  1.50000000E+00  1.50000000E+00  8.00000000E-01
  8.00000000E-01  1.50000000E+00  1.50000000E+00  8.00000000E-01  8.00000000E-01
  1.50000000E+00  1.50000000E+00  8.00000000E-01  8.00000000E-01  1.50000000E+00
  1.50000000E+00  8.00000000E-01  8.00000000E-01  1.50000000E+00  1.50000000E+00
  8.00000000E-01  8.00000000E-01  1.50000000E+00  1.50000000E+00  8.00000000E-01
  8.00000000E-01  1.50000000E+00  1.50000000E+00  8.00000000E-01  8.00000000E-01
  1.50000000E+00  1.50000000E+00  8.00000000E-01  8.00000000E-01  1.50000000E+00
  1.50000000E+00  8.00000000E-01  8.00000000E-01  1.50000000E+00  1.50000000E+00
  8.00000000E-01  8.00000000E-01  1.50000000E+00  1.50000000E+00  8.00000000E-01
  8.00000000E-01  1.50000000E+00  1.50000000E+00  8.00000000E-01  8.00000000E-01
  1.50000000E+00  1.50000000E+00  8.00000000E-01  8.00000000E-01  1.50000000E+00
  1.50000000E+00  8.00000000E-01  8.00000000E-01  1.50000000E+00  1.50000000E+00
  8.00000000E-01  8.00000000E-01  1.50000000E+00  1.50000000E+00  8.00000000E-01
  8.00000000E-01  1.50000000E+00  1.50000000E+00  8.00000000E-01  8.00000000E-01
  1.50000000E+00  1.50000000E+00  8.00000000E-01  8.00000000E-01  1.50000000E+00
  1.50000000E+00  8.00000000E-01  8.00000000E-01  1.50000000E+00  1.50000000E+00
  8.00000000E-01  8.00000000E-01  1.50000000E+00  1.50000000E+00  8.00000000E-01
  8.00000000E-01  1.50000000E+00  1.50000000E+00  8.00000000E-01  8.00000000E-01
  1.50000000E+00  1.50000000E+00  8.00000000E-01  8.00000000E-01  1.50000000E+00
  1.50000000E+00  8.00000000E-01  8.00000000E-01  1.50000000E+00  1.50000000E+00
  8.00000000E-01  8.00000000E-01  1.50000000E+00  1.50000000E+00  8.00000000E-01
  8.00000000E-01  1.50000000E+00  1.50000000E+00  8.00000000E-01  8.00000000E-01
  1.50000000E+00  1.50000000E+00  8.00000000E-01  8.00000000E-01  1.50000000E+00
  1.50000000E+00  8.00000000E-01  8.00000000E-01  1.50000000E+00  1.50000000E+00
  8.00000000E-01  8.00000000E-01  1.50000000E+00  1.50000000E+00  8.00000000E-01
  8.00000000E-01  1.50000000E+00  1.50000000E+00  8.00000000E-01  8.00000000E-01
  1.50000000E+00  1.50000000E+00  8.00000000E-01  8.00000000E-01  1.50000000E+00
  1.50000000E+00  8.00000000E-01  8.00000000E-01  1.50000000E+00  1.50000000E+00
  8.00000000E-01  8.00000000E-01  1.50000000E+00  1.50000000E+00  8.00000000E-01
  8.00000000E-01  1.50000000E+00  1.50000000E+00  8.00000000E-01  8.00000000E-01
  1.50000000E+00  1.50000000E+00  8.00000000E-01  8.00000000E-01  1.50000000E+00
  1.50000000E+00  8.00000000E-01  8.00000000E-01  1.50000000E+00  1.50000000E+00
  8.00000000E-01  8.00000000E-01  1.50000000E+00  1.50000000E+00  8.00000000E-01
  8.00000000E-01  1.50000000E+00  1.50000000E+00  8.00000000E-01  8.00000000E-01
  1.50000000E+00  1.50000000E+00  8.00000000E-01  8.00000000E-01  1.50000000E+00
  1.50000000E+00  8.00000000E-01  8.00000000E-01  1.50000000E+00  1.50000000E+00
  8.00000000E-01  8.00000000E-01  1.50000000E+00  1.50000000E+00  8.00000000E-01
  8.00000000E-01  1.50000000E+00  1.50000000E+00  8.00000000E-01  8.00000000E-01
  1.50000000E+00  1.50000000E+00  8.00000000E-01  8.00000000E-01  1.50000000E+00
  1.50000000E+00  8.00000000E-01  8.00000000E-01  1.50000000E+00  1.50000000E+00
  8.00000000E-01  8.00000000E-01  1.50000000E+00  1.50000000E+00  8.00000000E-01
  8.00000000E-01  1.50000000E+00  1.50000000E+00  8.00000000E-01  8.00000000E-01
  1.50000000E+00  1.50000000E+00  8.00000000E-01  8.00000000E-01  1.50000000E+00
  1.50000000E+00  8.00000000E-01  8.00000000E-01  1.50000000E+00  1.50000000E+00
  8.00000000E-01  8.00000000E-01  1.50000000E+00  1.50000000E+00  8.00000000E-01
  8.00000000E-01  1.50000000E+00  1.50000000E+00  8.00000000E-01  8.00000000E-01
  1.50000000E+00  1.50000000E+00  8.00000000E-01  8.00000000E-01  1.50000000E+00
  1.50000000E+00  8.00000000E-01  8.00000000E-01  1.50000000E+00  1.50000000E+00
  8.00000000E-01  8.00000000E-01  1.50000000E+00  1.50000000E+00  8.00000000E-01
  8.00000000E-01  1.50000000E+00  1.50000000E+00  8.00000000E-01  8.00000000E-01
  1.50000000E+00  1.50000000E+00  8.00000000E-01  8.00000000E-01  1.50000000E+00
  1.50000000E+00  8.00000000E-01  8.00000000E-01  1.50000000E+00  1.50000000E+00
  8.00000000E-01  8.00000000E-01  1.50000000E+00  1.50000000E+00  8.00000000E-01
  8.00000000E-01  1.50000000E+00  1.50000000E+00  8.00000000E-01  8.00000000E-01
  1.50000000E+00  1.50000000E+00  8.00000000E-01  8.00000000E-01  1.50000000E+00
  1.50000000E+00  8.00000000E-01  8.00000000E-01  1.50000000E+00  1.50000000E+00
  8.00000000E-01  8.00000000E-01  1.50000000E+00  1.50000000E+00  8.00000000E-01
  8.00000000E-01  1.50000000E+00  1.50000000E+00  8.00000000E-01  8.00000000E-01
  1.50000000E+00  1.50000000E+00  8.00000000E-01  8.00000000E-01  1.50000000E+00
  1.50000000E+00  8.00000000E-01  8.00000000E-01  1.50000000E+00  1.50000000E+00
  8.00000000E-01  8.00000000E-01  1.50000000E+00  1.50000000E+00  8.00000000E-01
  8.00000000E-01  1.50000000E+00  1.50000000E+00  8.00000000E-01  8.00000000E-01
  1.50000000E+00  1.50000000E+00  8.00000000E-01  8.00000000E-01  1.50000000E+00
  1.50000000E+00  8.00000000E-01  8.00000000E-01  1.50000000E+00  1.50000000E+00
  8.00000000E-01  8.00000000E-01  1.50000000E+00  1.50000000E+00  8.00000000E-01
  8.00000000E-01  1.50000000E+00  1.50000000E+00  8.00000000E-01  8.00000000E-01
  1.50000000E+00  1.50000000E+00  8.00000000E-01  8.00000000E-01  1.50000000E+00
  1.50000000E+00  8.00000000E-01  8.00000000E-01  1.50000000E+00  1.50000000E+00
  8.00000000E-01  8.00000000E-01  1.50000000E+00  1.50000000E+00  8.00000000E-01
  8.00000000E-01  1.50000000E+00  1.50000000E+00  8.00000000E-01  8.00000000E-01
  1.50000000E+00  1.50000000E+00  8.00000000E-01  8.00000000E-01  1.50000000E+00
  1.50000000E+00  8.00000000E-01  8.00000000E-01  1.50000000E+00  1.50000000E+00
  8.00000000E-01  8.00000000E-01  1.50000000E+00  1.50000000E+00  8.00000000E-01
  8.00000000E-01  1.50000000E+00  1.50000000E+00  8.00000000E-01  8.00000000E-01
  1.50000000E+00  1.50000000E+00  8.00000000E-01  8.00000000E-01  1.50000000E+00
  1.50000000E+00  8.00000000E-01  8.00000000E-01  1.50000000E+00  1.50000000E+00
  8.00000000E-01  8.00000000E-01  1.50000000E+00  1.50000000E+00  8.00000000E-01
  8.00000000E-01  1.50000000E+00  1.50000000E+00  8.00000000E-01  8.00000000E-01
  1.50000000E+00  1.50000000E+00  8.00000000E-01  8.00000000E-01  1.50000000E+00
  1.50000000E+00  8.00000000E-01  8.00000000E-01  1.50000000E+00  1.50000000E+00
  8.00000000E-01  8.00000000E-01  1.50000000E+00  1.50000000E+00  8.00000000E-01
  8.00000000E-01  1.50000000E+00  1.50000000E+00  8.00000000E-01  8.00000000E-01
  1.50000000E+00  1.50000000E+00  8.00000000E-01  8.00000000E-01  1.50000000E+00
  1.50000000E+00  8.00000000E-01  8.00000000E-01  1.50000000E+00  1.50000000E+00
  8.00000000E-01  8.00000000E-01  1.50000000E+00  1.50000000E+00  8.00000000E-01
  8.00000000E-01  1.50000000E+00  1.50000000E+00  8.00000000E-01  8.00000000E-01
  1.50000000E+00  1.50000000E+00  8.00000000E-01  8.00000000E-01  1.50000000E+00
  1.50000000E+00  8.00000000E-01  8.00000000E-01  1.50000000E+00  1.50000000E+00
  8.00000000E-01  8.00000000E-01  1.50000000E+00  1.50000000E+00  8.00000000E-01
  8.00000000E-01  1.50000000E+00  1.50000000E+00  8.00000000E-01  8.00000000E-01
  1.50000000E+00  1.50000000E+00  8.00000000E-01  8.00000000E-01  1.50000000E+00
  1.50000000E+00  8.00000000E-01  8.00000000E-01  1.50000000E+00  1.50000000E+00
  8.00000000E-01  8.00000000E-01  1.50000000E+00  1.50000000E+00  8.00000000E-01
  8.00000000E-01  1.50000000E+00  1.50000000E+00  8.00000000E-01  8.00000000E-01
  1.50000000E+00  1.50000000E+00  8.00000000E-01  8.00000000E-01  1.50000000E+00
  1.50000000E+00  8.00000000E-01  8.00000000E-01  1.50000000E+00  1.50000000E+00
  8.00000000E-01  8.00000000E-01  1.50000000E+00  1.50000000E+00  8.00000000E-01
  8.00000000E-01  1.50000000E+00  1.50000000E+00  8.00000000E-01  8.00000000E-01
  1.50000000E+00  1.50000000E+00  8.00000000E-01  8.00000000E-01  1.50000000E+00
  1.50000000E+00  8.00000000E-01  8.00000000E-01  1.50000000E+00  1.50000000E+00
  8.00000000E-01  8.00000000E-01  1.50000000E+00  1.50000000E+00  8.00000000E-01
  8.00000000E-01  1.50000000E+00  1.50000000E+00  8.00000000E-01  8.00000000E-01
  1.50000000E+00  1.50000000E+00  8.00000000E-01  8.00000000E-01  1.50000000E+00
  1.50000000E+00  8.00000000E-01  8.00000000E-01  1.50000000E+00  1.50000000E+00
  8.00000000E-01  8.00000000E-01  1.50000000E+00  1.50000000E+00  8.00000000E-01
  8.00000000E-01  1.50000000E+00  1.50000000E+00  8.00000000E-01  8.00000000E-01
  1.50000000E+00  1.50000000E+00  8.00000000E-01  8.00000000E-01  1.50000000E+00
  1.50000000E+00  8.00000000E-01  8.00000000E-01  1.50000000E+00  1.50000000E+00
  8.00000000E-01  8.00000000E-01  1.50000000E+00  1.50000000E+00  8.00000000E-01
  8.00000000E-01  1.50000000E+00  1.50000000E+00  8.00000000E-01  8.00000000E-01
  1.50000000E+00  1.50000000E+00  8.00000000E-01  8.00000000E-01  1.50000000E+00
  1.50000000E+00  8.00000000E-01  8.00000000E-01  1.50000000E+00  1.50000000E+00
  8.00000000E-01  8.00000000E-01  1.50000000E+00  1.50000000E+00  8.00000000E-01
  8.00000000E-01  1.50000000E+00  1.50000000E+00  8.00000000E-01  8.00000000E-01
  1.50000000E+00  1.50000000E+00  8.00000000E-01  8.00000000E-01  1.50000000E+00
  1.50000000E+00  8.00000000E-01  8.00000000E-01  1.50000000E+00  1.50000000E+00
  8.00000000E-01  8.00000000E-01  1.50000000E+00  1.50000000E+00  8.00000000E-01
  8.00000000E-01  1.50000000E+00  1.50000000E+00  8.00000000E-01  8.00000000E-01
  1.50000000E+00  1.50000000E+00  8.00000000E-01  8.00000000E-01  1.50000000E+00
  1.50000000E+00  8.00000000E-01  8.00000000E-01  1.50000000E+00  1.50000000E+00
  8.00000000E-01  8.00000000E-01  1.50000000E+00  1.50000000E+00  8.00000000E-01
  8.00000000E-01  1.50000000E+00  1.50000000E+00  8.00000000E-01  8.00000000E-01
  1.50000000E+00  1.50000000E+00  8.00000000E-01  8.00000000E-01  1.50000000E+00
  1.50000000E+00  8.00000000E-01  8.00000000E-01  1.50000000E+00  1.50000000E+00
  8.00000000E-01  8.00000000E-01  1.50000000E+00  1.50000000E+00  8.00000000E-01
  8.00000000E-01  1.50000000E+00  1.50000000E+00  8.00000000E-01  8.00000000E-01
  1.50000000E+00  1.50000000E+00  8.00000000E-01  8.00000000E-01  1.50000000E+00
  1.50000000E+00  8.00000000E-01  8.00000000E-01  1.50000000E+00  1.50000000E+00
  8.00000000E-01  8.00000000E-01  1.50000000E+00  1.50000000E+00  8.00000000E-01
  8.00000000E-01  1.50000000E+00  1.50000000E+00  8.00000000E-01  8.00000000E-01
  1.50000000E+00  1.50000000E+00  8.00000000E-01  8.00000000E-01  1.50000000E+00
  1.50000000E+00  8.00000000E-01  8.00000000E-01  1.50000000E+00  1.50000000E+00
  8.00000000E-01  8.00000000E-01  1.50000000E+00  1.50000000E+00  8.00000000E-01
  8.00000000E-01  1.50000000E+00  1.50000000E+00  8.00000000E-01  8.00000000E-01
  1.50000000E+00  1.50000000E+00  8.00000000E-01  8.00000000E-01  1.50000000E+00
  1.50000000E+00  8.00000000E-01  8.00000000E-01  1.50000000E+00  1.50000000E+00
  8.00000000E-01  8.00000000E-01  1.50000000E+00  1.50000000E+00  8.00000000E-01
  8.00000000E-01  1.50000000E+00  1.50000000E+00  8.00000000E-01  8.00000000E-01
  1.50000000E+00  1.50000000E+00  8.00000000E-01  8.00000000E-01  1.50000000E+00
  1.50000000E+00  8.00000000E-01  8.00000000E-01  1.50000000E+00  1.50000000E+00
  8.00000000E-01  8.00000000E-01  1.50000000E+00  1.50000000E+00  8.00000000E-01
  8.00000000E-01  1.50000000E+00  1.50000000E+00  8.00000000E-01  8.00000000E-01
  1.50000000E+00  1.50000000E+00  8.00000000E-01  8.00000000E-01  1.50000000E+00
  1.50000000E+00  8.00000000E-01  8.00000000E-01  1.50000000E+00  1.50000000E+00
  8.00000000E-01  8.00000000E-01  1.50000000E+00  1.50000000E+00  8.00000000E-01
  8.00000000E-01  1.50000000E+00  1.50000000E+00  8.00000000E-01  8.00000000E-01
  1.50000000E+00  1.50000000E+00  8.00000000E-01  8.00000000E-01  1.50000000E+00
  1.50000000E+00  8.00000000E-01  8.00000000E-01  1.50000000E+00  1.50000000E+00
  8.00000000E-01  8.00000000E-01  1.50000000E+00  1.50000000E+00  8.00000000E-01
  8.00000000E-01  1.50000000E+00  1.50000000E+00  8.00000000E-01  8.00000000E-01
  1.50000000E+00  1.50000000E+00  8.00000000E-01  8.00000000E-01  1.50000000E+00
  1.50000000E+00  8.00000000E-01  8.00000000E-01  1.50000000E+00  1.50000000E+00
  8.00000000E-01  8.00000000E-01  1.50000000E+00  1.50000000E+00  8.00000000E-01
  8.00000000E-01  1.50000000E+00  1.50000000E+00  8.00000000E-01  8.00000000E-01
  1.50000000E+00  1.50000000E+00  8.00000000E-01  8.00000000E-01  1.50000000E+00
  1.50000000E+00  8.00000000E-01  8.00000000E-01  1.50000000E+00  1.50000000E+00
  8.00000000E-01  8.00000000E-01  1.50000000E+00  1.50000000E+00  8.00000000E-01
  8.00000000E-01  1.50000000E+00  1.50000000E+00  8.00000000E-01  8.00000000E-01
  1.50000000E+00  1.50000000E+00  8.00000000E-01  8.00000000E-01  1.50000000E+00
  1.50000000E+00  8.00000000E-01  8.00000000E-01  1.50000000E+00  1.50000000E+00
  8.00000000E-01  8.00000000E-01  1.50000000E+00  1.50000000E+00  8.00000000E-01
  8.00000000E-01  1.50000000E+00  1.50000000E+00  8.00000000E-01  8.00000000E-01
  1.50000000E+00  1.50000000E+00  8.00000000E-01  8.00000000E-01  1.50000000E+00
  1.50000000E+00  8.00000000E-01  8.00000000E-01  1.50000000E+00  1.50000000E+00
  8.00000000E-01  8.00000000E-01  1.50000000E+00  1.50000000E+00  8.00000000E-01
  8.00000000E-01  1.50000000E+00  1.50000000E+00  8.00000000E-01  8.00000000E-01
  1.50000000E+00  1.50000000E+00  8.00000000E-01  8.00000000E-01  1.50000000E+00
  1.50000000E+00  8.00000000E-01  8.00000000E-01  1.50000000E+00  1.50000000E+00
  8.00000000E-01  8.00000000E-01  1.50000000E+00  1.50000000E+00  8.00000000E-01
  8.00000000E-01  1.50000000E+00  1.50000000E+00  8.00000000E-01  8.00000000E-01
  1.50000000E+00  1.50000000E+00  8.00000000E-01  8.00000000E-01  1.50000000E+00
  1.50000000E+00  8.00000000E-01  8.00000000E-01  1.50000000E+00  1.50000000E+00
  8.00000000E-01  8.00000000E-01  1.50000000E+00  1.50000000E+00  8.00000000E-01
  8.00000000E-01  1.50000000E+00  1.50000000E+00  8.00000000E-01  8.00000000E-01
  1.50000000E+00  1.50000000E+00  8.00000000E-01  8.00000000E-01  1.50000000E+00
  1.50000000E+00  8.00000000E-01  8.00000000E-01  1.50000000E+00  1.50000000E+00
  8.00000000E-01  8.00000000E-01  1.50000000E+00  1.50000000E+00  8.00000000E-01
  8.00000000E-01  1.50000000E+00  1.50000000E+00  8.00000000E-01  8.00000000E-01
  1.50000000E+00  1.50000000E+00  8.00000000E-01  8.00000000E-01  1.50000000E+00
  1.50000000E+00  8.00000000E-01  8.00000000E-01  1.50000000E+00  1.50000000E+00
  8.00000000E-01  8.00000000E-01  1.50000000E+00  1.50000000E+00  8.00000000E-01
  8.00000000E-01  1.50000000E+00  1.50000000E+00  8.00000000E-01  8.00000000E-01
  1.50000000E+00  1.50000000E+00  8.00000000E-01  8.00000000E-01  1.50000000E+00
  1.50000000E+00  8.00000000E-01  8.00000000E-01  1.50000000E+00  1.50000000E+00
  8.00000000E-01  8.00000000E-01  1.50000000E+00  1.50000000E+00  8.00000000E-01
  8.00000000E-01  1.50000000E+00  1.50000000E+00  8.00000000E-01  8.00000000E-01
  1.50000000E+00  1.50000000E+00  8.00000000E-01  8.00000000E-01  1.50000000E+00
  1.50000000E+00  8.00000000E-01  8.00000000E-01  1.50000000E+00  1.50000000E+00
  8.00000000E-01  8.00000000E-01  1.50000000E+00  1.50000000E+00  8.00000000E-01
  8.00000000E-01  1.50000000E+00  1.50000000E+00  8.00000000E-01  8.00000000E-01
  1.50000000E+00  1.50000000E+00  8.00000000E-01  8.00000000E-01  1.50000000E+00
  1.50000000E+00  8.00000000E-01  8.00000000E-01  1.50000000E+00  1.50000000E+00
  8.00000000E-01  8.00000000E-01  1.50000000E+00  1.50000000E+00  8.00000000E-01
  8.00000000E-01  1.50000000E+00  1.50000000E+00  8.00000000E-01  8.00000000E-01
  1.50000000E+00  1.50000000E+00  8.00000000E-01  8.00000000E-01  1.50000000E+00
  1.50000000E+00  8.00000000E-01  8.00000000E-01  1.50000000E+00  1.50000000E+00
  8.00000000E-01  8.00000000E-01  1.50000000E+00  1.50000000E+00  8.00000000E-01
  8.00000000E-01  1.50000000E+00  1.50000000E+00  8.00000000E-01  8.00000000E-01
  1.50000000E+00  1.50000000E+00  8.00000000E-01  8.00000000E-01  1.50000000E+00
  1.50000000E+00  8.00000000E-01  8.00000000E-01  1.50000000E+00  1.50000000E+00
  8.00000000E-01  8.00000000E-01  1.50000000E+00  1.50000000E+00  8.00000000E-01
  8.00000000E-01  1.50000000E+00  1.50000000E+00  8.00000000E-01  8.00000000E-01
  1.50000000E+00  1.50000000E+00  8.00000000E-01  8.00000000E-01  1.50000000E+00
  1.50000000E+00  8.00000000E-01  8.00000000E-01  1.50000000E+00  1.50000000E+00
  8.00000000E-01  8.00000000E-01  1.50000000E+00  1.50000000E+00  8.00000000E-01
  8.00000000E-01  1.50000000E+00  1.50000000E+00  8.00000000E-01  8.00000000E-01
  1.50000000E+00  1.50000000E+00  8.00000000E-01  8.00000000E-01  1.50000000E+00
  1.50000000E+00  8.00000000E-01  8.00000000E-01  1.50000000E+00  1.50000000E+00
  8.00000000E-01  8.00000000E-01  1.50000000E+00  1.50000000E+00  8.00000000E-01
  8.00000000E-01  1.50000000E+00  1.50000000E+00  8.00000000E-01  8.00000000E-01
  1.50000000E+00  1.50000000E+00  8.00000000E-01  8.00000000E-01  1.50000000E+00
  1.50000000E+00  8.00000000E-01  8.00000000E-01  1.50000000E+00  1.50000000E+00
  8.00000000E-01  8.00000000E-01  1.50000000E+00  1.50000000E+00  8.00000000E-01
  8.00000000E-01  1.50000000E+00  1.50000000E+00  8.00000000E-01  8.00000000E-01
  1.50000000E+00  1.50000000E+00  8.00000000E-01  8.00000000E-01  1.50000000E+00
  1.50000000E+00  8.00000000E-01  8.00000000E-01  1.50000000E+00  1.50000000E+00
  8.00000000E-01  8.00000000E-01  1.50000000E+00  1.50000000E+00  8.00000000E-01
  8.00000000E-01  1.50000000E+00  1.50000000E+00  8.00000000E-01  8.00000000E-01
  1.50000000E+00  1.50000000E+00  8.00000000E-01  8.00000000E-01  1.50000000E+00
  1.50000000E+00  8.00000000E-01  8.00000000E-01  1.50000000E+00  1.50000000E+00
  8.00000000E-01  8.00000000E-01  1.50000000E+00  1.50000000E+00  8.00000000E-01
  8.00000000E-01  1.50000000E+00  1.50000000E+00  8.00000000E-01  8.00000000E-01
  1.50000000E+00  1.50000000E+00  8.00000000E-01  8.00000000E-01  1.50000000E+00
  1.50000000E+00  8.00000000E-01  8.00000000E-01  1.50000000E+00  1.50000000E+00
  8.00000000E-01  8.00000000E-01  1.50000000E+00  1.50000000E+00  8.00000000E-01
  8.00000000E-01  1.50000000E+00  1.50000000E+00  8.00000000E-01  8.00000000E-01
  1.50000000E+00  1.50000000E+00  8.00000000E-01  8.00000000E-01  1.50000000E+00
  1.50000000E+00  8.00000000E-01  8.00000000E-01  1.50000000E+00  1.50000000E+00
  8.00000000E-01  8.00000000E-01  1.50000000E+00  1.50000000E+00  8.00000000E-01
  8.00000000E-01  1.50000000E+00  1.50000000E+00  8.00000000E-01  8.00000000E-01
  1.50000000E+00  1.50000000E+00  8.00000000E-01  8.00000000E-01  1.50000000E+00
  1.50000000E+00  8.00000000E-01  8.00000000E-01  1.50000000E+00  1.50000000E+00
  8.00000000E-01  8.00000000E-01  1.50000000E+00  1.50000000E+00  8.00000000E-01
  8.00000000E-01  1.50000000E+00  1.50000000E+00  8.00000000E-01  8.00000000E-01
  1.50000000E+00  1.50000000E+00  8.00000000E-01  8.00000000E-01  1.50000000E+00
  1.50000000E+00  8.00000000E-01  8.00000000E-01  1.50000000E+00  1.50000000E+00
  8.00000000E-01  8.00000000E-01  1.50000000E+00  1.50000000E+00  8.00000000E-01
  8.00000000E-01  1.50000000E+00  1.50000000E+00  8.00000000E-01  8.00000000E-01
  1.50000000E+00  1.50000000E+00  8.00000000E-01  8.00000000E-01  1.50000000E+00
  1.50000000E+00  8.00000000E-01  8.00000000E-01  1.50000000E+00  1.50000000E+00
  8.00000000E-01  8.00000000E-01  1.50000000E+00  1.50000000E+00  8.00000000E-01
  8.00000000E-01  1.50000000E+00  1.50000000E+00  8.00000000E-01  8.00000000E-01
  1.50000000E+00  1.50000000E+00  8.00000000E-01  8.00000000E-01  1.50000000E+00
  1.50000000E+00  8.00000000E-01  8.00000000E-01  1.50000000E+00  1.50000000E+00
  8.00000000E-01  8.00000000E-01  1.50000000E+00  1.50000000E+00  8.00000000E-01
  8.00000000E-01  1.50000000E+00  1.50000000E+00  8.00000000E-01  8.00000000E-01
  1.50000000E+00  1.50000000E+00  8.00000000E-01  8.00000000E-01  1.50000000E+00
  1.50000000E+00  8.00000000E-01  8.00000000E-01  1.50000000E+00  1.50000000E+00
  8.00000000E-01  8.00000000E-01  1.50000000E+00  1.50000000E+00  8.00000000E-01
  8.00000000E-01  1.50000000E+00  1.50000000E+00  8.00000000E-01  8.00000000E-01
  1.50000000E+00  1.50000000E+00  8.00000000E-01  8.00000000E-01  1.50000000E+00
  1.50000000E+00  8.00000000E-01  8.00000000E-01  1.50000000E+00  1.50000000E+00
  8.00000000E-01  8.00000000E-01  1.50000000E+00  1.50000000E+00  8.00000000E-01
  8.00000000E-01  1.50000000E+00  1.50000000E+00  8.00000000E-01  8.00000000E-01
  1.50000000E+00  1.50000000E+00  8.00000000E-01  8.00000000E-01  1.50000000E+00
  1.50000000E+00  8.00000000E-01  8.00000000E-01  1.50000000E+00  1.50000000E+00
  8.00000000E-01  8.00000000E-01  1.50000000E+00  1.50000000E+00  8.00000000E-01
  8.00000000E-01  1.50000000E+00  1.50000000E+00  8.00000000E-01  8.00000000E-01
  1.50000000E+00  1.50000000E+00  8.00000000E-01  8.00000000E-01  1.50000000E+00
  1.50000000E+00  8.00000000E-01  8.00000000E-01  1.50000000E+00  1.50000000E+00
  8.00000000E-01  8.00000000E-01  1.50000000E+00  1.50000000E+00  8.00000000E-01
  8.00000000E-01  1.50000000E+00  1.50000000E+00  8.00000000E-01  8.00000000E-01
  1.50000000E+00  1.50000000E+00  8.00000000E-01  8.00000000E-01  1.50000000E+00
  1.50000000E+00  8.00000000E-01  8.00000000E-01  1.50000000E+00  1.50000000E+00
  8.00000000E-01  8.00000000E-01  1.50000000E+00  1.50000000E+00  8.00000000E-01
  8.00000000E-01  1.50000000E+00  1.50000000E+00  8.00000000E-01  8.00000000E-01
  1.50000000E+00  1.50000000E+00  8.00000000E-01  8.00000000E-01  1.50000000E+00
  1.50000000E+00  8.00000000E-01  8.00000000E-01  1.50000000E+00  1.50000000E+00
  8.00000000E-01  8.00000000E-01  1.50000000E+00  1.50000000E+00  8.00000000E-01
  8.00000000E-01  1.50000000E+00  1.50000000E+00  8.00000000E-01  8.00000000E-01
  1.50000000E+00  1.50000000E+00  8.00000000E-01  8.00000000E-01  1.50000000E+00
  1.50000000E+00  8.00000000E-01  8.00000000E-01  1.50000000E+00  1.50000000E+00
  8.00000000E-01  8.00000000E-01  1.50000000E+00  1.50000000E+00  8.00000000E-01
  8.00000000E-01  1.50000000E+00  1.50000000E+00  8.00000000E-01  8.00000000E-01
  1.50000000E+00  1.50000000E+00  8.00000000E-01  8.00000000E-01  1.50000000E+00
  1.50000000E+00  8.00000000E-01  8.00000000E-01  1.50000000E+00  1.50000000E+00
  8.00000000E-01  8.00000000E-01  1.50000000E+00  1.50000000E+00  8.00000000E-01
  8.00000000E-01  1.50000000E+00  1.50000000E+00  8.00000000E-01  8.00000000E-01
  1.50000000E+00  1.50000000E+00  8.00000000E-01  8.00000000E-01  1.50000000E+00
  1.50000000E+00  8.00000000E-01  8.00000000E-01  1.50000000E+00  1.50000000E+00
  8.00000000E-01  8.00000000E-01  1.50000000E+00  1.50000000E+00  8.00000000E-01
  8.00000000E-01  1.50000000E+00  1.50000000E+00  8.00000000E-01  8.00000000E-01
  1.50000000E+00  1.50000000E+00  8.00000000E-01  8.00000000E-01  1.50000000E+00
  1.50000000E+00  8.00000000E-01  8.00000000E-01  1.50000000E+00  1.50000000E+00
  8.00000000E-01  8.00000000E-01  1.50000000E+00  1.50000000E+00  8.00000000E-01
  8.00000000E-01  1.50000000E+00  1.50000000E+00  8.00000000E-01  8.00000000E-01
  1.50000000E+00  1.50000000E+00  8.00000000E-01  8.00000000E-01  1.50000000E+00
  1.50000000E+00  8.00000000E-01  8.00000000E-01  1.50000000E+00  1.50000000E+00
  8.00000000E-01  8.00000000E-01  1.50000000E+00  1.50000000E+00  8.00000000E-01
  8.00000000E-01  1.50000000E+00  1.50000000E+00  8.00000000E-01  8.00000000E-01
  1.50000000E+00  1.50000000E+00  8.00000000E-01  8.00000000E-01  1.50000000E+00
  1.50000000E+00  8.00000000E-01  8.00000000E-01  1.50000000E+00  1.50000000E+00
  8.00000000E-01  8.00000000E-01  1.50000000E+00  1.50000000E+00  8.00000000E-01
  8.00000000E-01  1.50000000E+00  1.50000000E+00  8.00000000E-01  8.00000000E-01
  1.50000000E+00  1.50000000E+00  8.00000000E-01  8.00000000E-01  1.50000000E+00
  1.50000000E+00  8.00000000E-01  8.00000000E-01  1.50000000E+00  1.50000000E+00
  8.00000000E-01  8.00000000E-01  1.50000000E+00  1.50000000E+00  8.00000000E-01
  8.00000000E-01  1.50000000E+00  1.50000000E+00  8.00000000E-01  8.00000000E-01
  1.50000000E+00  1.50000000E+00  8.00000000E-01  8.00000000E-01  1.50000000E+00
  1.50000000E+00  8.00000000E-01  8.00000000E-01  1.50000000E+00  1.50000000E+00
  8.00000000E-01  8.00000000E-01  1.50000000E+00  1.50000000E+00  8.00000000E-01
  8.00000000E-01  1.50000000E+00  1.50000000E+00  8.00000000E-01  8.00000000E-01
  1.50000000E+00  1.50000000E+00  8.00000000E-01  8.00000000E-01  1.50000000E+00
  1.50000000E+00  8.00000000E-01  8.00000000E-01  1.50000000E+00  1.50000000E+00
  8.00000000E-01  8.00000000E-01  1.50000000E+00  1.50000000E+00  8.00000000E-01
  8.00000000E-01  1.50000000E+00  1.50000000E+00  8.00000000E-01  8.00000000E-01
  1.50000000E+00  1.50000000E+00  8.00000000E-01  8.00000000E-01  1.50000000E+00
  1.50000000E+00  8.00000000E-01  8.00000000E-01  1.50000000E+00  1.50000000E+00
  8.00000000E-01  8.00000000E-01  1.50000000E+00  1.50000000E+00  8.00000000E-01
  8.00000000E-01  1.50000000E+00  1.50000000E+00  8.00000000E-01  8.00000000E-01
  1.50000000E+00  1.50000000E+00  8.00000000E-01  8.00000000E-01  1.50000000E+00
  1.50000000E+00  8.00000000E-01  8.00000000E-01  1.50000000E+00  1.50000000E+00
  8.00000000E-01  8.00000000E-01  1.50000000E+00  1.50000000E+00  8.00000000E-01
  8.00000000E-01  1.50000000E+00  1.50000000E+00  8.00000000E-01  8.00000000E-01
  1.50000000E+00  1.50000000E+00  8.00000000E-01  8.00000000E-01  1.50000000E+00
  1.50000000E+00  8.00000000E-01  8.00000000E-01  1.50000000E+00  1.50000000E+00
  8.00000000E-01  8.00000000E-01  1.50000000E+00  1.50000000E+00  8.00000000E-01
  8.00000000E-01  1.50000000E+00  1.50000000E+00  8.00000000E-01  8.00000000E-01
  1.50000000E+00  1.50000000E+00  8.00000000E-01  8.00000000E-01  1.50000000E+00
  1.50000000E+00  8.00000000E-01  8.00000000E-01  1.50000000E+00  1.50000000E+00
  8.00000000E-01  8.00000000E-01  1.50000000E+00  1.50000000E+00  8.00000000E-01
  8.00000000E-01  1.50000000E+00  1.50000000E+00  8.00000000E-01  8.00000000E-01
  1.50000000E+00  1.50000000E+00  8.00000000E-01  8.00000000E-01  1.50000000E+00
  1.50000000E+00  8.00000000E-01  8.00000000E-01  1.50000000E+00  1.50000000E+00
  8.00000000E-01  8.00000000E-01  1.50000000E+00  1.50000000E+00  8.00000000E-01
  8.00000000E-01  1.50000000E+00  1.50000000E+00  8.00000000E-01  8.00000000E-01
  1.50000000E+00  1.50000000E+00  8.00000000E-01  8.00000000E-01  1.50000000E+00
  1.50000000E+00  8.00000000E-01  8.00000000E-01  1.50000000E+00  1.50000000E+00
  8.00000000E-01  8.00000000E-01  1.50000000E+00  1.50000000E+00  8.00000000E-01
  8.00000000E-01  1.50000000E+00  1.50000000E+00  8.00000000E-01  8.00000000E-01
  1.50000000E+00  1.50000000E+00  8.00000000E-01  8.00000000E-01  1.50000000E+00
  1.50000000E+00  8.00000000E-01  8.00000000E-01  1.50000000E+00  1.50000000E+00
  8.00000000E-01  8.00000000E-01  1.50000000E+00  1.50000000E+00  8.00000000E-01
  8.00000000E-01  1.50000000E+00  1.50000000E+00  8.00000000E-01  8.00000000E-01
  1.50000000E+00  1.50000000E+00  8.00000000E-01  8.00000000E-01  1.50000000E+00
  1.50000000E+00  8.00000000E-01  8.00000000E-01  1.50000000E+00  1.50000000E+00
  8.00000000E-01  8.00000000E-01  1.50000000E+00  1.50000000E+00  8.00000000E-01
  8.00000000E-01  1.50000000E+00  1.50000000E+00  8.00000000E-01  8.00000000E-01
  1.50000000E+00  1.50000000E+00  8.00000000E-01  8.00000000E-01  1.50000000E+00
  1.50000000E+00  8.00000000E-01  8.00000000E-01  1.50000000E+00  1.50000000E+00
  8.00000000E-01  8.00000000E-01  1.50000000E+00  1.50000000E+00  8.00000000E-01
  8.00000000E-01  1.50000000E+00  1.50000000E+00  8.00000000E-01  8.00000000E-01
  1.50000000E+00  1.50000000E+00  8.00000000E-01  8.00000000E-01  1.50000000E+00
  1.50000000E+00  8.00000000E-01  8.00000000E-01  1.50000000E+00  1.50000000E+00
  8.00000000E-01  8.00000000E-01  1.50000000E+00  1.50000000E+00  8.00000000E-01
  8.00000000E-01  1.50000000E+00  1.50000000E+00  8.00000000E-01  8.00000000E-01
  1.50000000E+00  1.50000000E+00  8.00000000E-01  8.00000000E-01  1.50000000E+00
  1.50000000E+00  8.00000000E-01  8.00000000E-01  1.50000000E+00  1.50000000E+00
  8.00000000E-01  8.00000000E-01  1.50000000E+00  1.50000000E+00  8.00000000E-01
  8.00000000E-01  1.50000000E+00  1.50000000E+00  8.00000000E-01  8.00000000E-01
  1.50000000E+00  1.50000000E+00  8.00000000E-01  8.00000000E-01  1.50000000E+00
  1.50000000E+00  8.00000000E-01  8.00000000E-01  1.50000000E+00  1.50000000E+00
  8.00000000E-01  8.00000000E-01  1.50000000E+00  1.50000000E+00  8.00000000E-01
  8.00000000E-01  1.50000000E+00  1.50000000E+00  8.00000000E-01  8.00000000E-01
  1.50000000E+00  1.50000000E+00  8.00000000E-01  8.00000000E-01  1.50000000E+00
  1.50000000E+00  8.00000000E-01  8.00000000E-01  1.50000000E+00  1.50000000E+00
  8.00000000E-01  8.00000000E-01  1.50000000E+00  1.50000000E+00  8.00000000E-01
  8.00000000E-01  1.50000000E+00  1.50000000E+00  8.00000000E-01  8.00000000E-01
  1.50000000E+00  1.50000000E+00  8.00000000E-01  8.00000000E-01  1.50000000E+00
  1.50000000E+00  8.00000000E-01  8.00000000E-01  1.50000000E+00  1.50000000E+00
  8.00000000E-01  8.00000000E-01  1.50000000E+00  1.50000000E+00  8.00000000E-01
  8.00000000E-01  1.50000000E+00  1.50000000E+00  8.00000000E-01  8.00000000E-01
  1.50000000E+00  1.50000000E+00  8.00000000E-01  8.00000000E-01  1.50000000E+00
  1.50000000E+00  8.00000000E-01  8.00000000E-01  1.50000000E+00  1.50000000E+00
  8.00000000E-01  8.00000000E-01  1.50000000E+00  1.50000000E+00  8.00000000E-01
  8.00000000E-01  1.50000000E+00  1.50000000E+00  8.00000000E-01  8.00000000E-01
  1.50000000E+00  1.50000000E+00  8.00000000E-01  8.00000000E-01  1.50000000E+00
  1.50000000E+00  8.00000000E-01  8.00000000E-01  1.50000000E+00  1.50000000E+00
  8.00000000E-01  8.00000000E-01  1.50000000E+00  1.50000000E+00  8.00000000E-01
  8.00000000E-01  1.50000000E+00  1.50000000E+00  8.00000000E-01  8.00000000E-01
  1.50000000E+00  1.50000000E+00  8.00000000E-01  8.00000000E-01  1.50000000E+00
  1.50000000E+00  8.00000000E-01  8.00000000E-01  1.50000000E+00  1.50000000E+00
  8.00000000E-01  8.00000000E-01  1.50000000E+00  1.50000000E+00  8.00000000E-01
  8.00000000E-01  1.50000000E+00  1.50000000E+00  8.00000000E-01  8.00000000E-01
  1.50000000E+00  1.50000000E+00  8.00000000E-01  8.00000000E-01  1.50000000E+00
  1.50000000E+00  8.00000000E-01  8.00000000E-01  1.50000000E+00  1.50000000E+00
  8.00000000E-01  8.00000000E-01  1.50000000E+00  1.50000000E+00  8.00000000E-01
  8.00000000E-01  1.50000000E+00  1.50000000E+00  8.00000000E-01  8.00000000E-01
  1.50000000E+00  1.50000000E+00  8.00000000E-01  8.00000000E-01  1.50000000E+00
  1.50000000E+00  8.00000000E-01  8.00000000E-01  1.50000000E+00  1.50000000E+00
  8.00000000E-01  8.00000000E-01  1.50000000E+00  1.50000000E+00  8.00000000E-01
  8.00000000E-01  1.50000000E+00  1.50000000E+00  8.00000000E-01  8.00000000E-01
  1.50000000E+00  1.50000000E+00  8.00000000E-01  8.00000000E-01  1.50000000E+00
  1.50000000E+00  8.00000000E-01  8.00000000E-01  1.50000000E+00  1.50000000E+00
  8.00000000E-01  8.00000000E-01  1.50000000E+00  1.50000000E+00  8.00000000E-01
  8.00000000E-01  1.50000000E+00  1.50000000E+00  8.00000000E-01  8.00000000E-01
  1.50000000E+00  1.50000000E+00  8.00000000E-01  8.00000000E-01  1.50000000E+00
  1.50000000E+00  8.00000000E-01  8.00000000E-01  1.50000000E+00  1.50000000E+00
  8.00000000E-01  8.00000000E-01  1.50000000E+00  1.50000000E+00  8.00000000E-01
  8.00000000E-01  1.50000000E+00  1.50000000E+00  8.00000000E-01  8.00000000E-01
  1.50000000E+00  1.50000000E+00  8.00000000E-01  8.00000000E-01  1.50000000E+00
  1.50000000E+00  8.00000000E-01  8.00000000E-01  1.50000000E+00  1.50000000E+00
  8.00000000E-01  8.00000000E-01  1.50000000E+00  1.50000000E+00  8.00000000E-01
  8.00000000E-01  1.50000000E+00  1.50000000E+00  8.00000000E-01  8.00000000E-01
  1.50000000E+00  1.50000000E+00  8.00000000E-01  8.00000000E-01  1.50000000E+00
  1.50000000E+00  8.00000000E-01  8.00000000E-01  1.50000000E+00  1.50000000E+00
  8.00000000E-01  8.00000000E-01  1.50000000E+00  1.50000000E+00  8.00000000E-01
  8.00000000E-01  1.50000000E+00  1.50000000E+00  8.00000000E-01  8.00000000E-01
  1.50000000E+00  1.50000000E+00  8.00000000E-01  8.00000000E-01  1.50000000E+00
  1.50000000E+00  8.00000000E-01  8.00000000E-01  1.50000000E+00  1.50000000E+00
  8.00000000E-01  8.00000000E-01  1.50000000E+00  1.50000000E+00  8.00000000E-01
  8.00000000E-01  1.50000000E+00  1.50000000E+00  8.00000000E-01  8.00000000E-01
  1.50000000E+00  1.50000000E+00  8.00000000E-01  8.00000000E-01  1.50000000E+00
  1.50000000E+00  8.00000000E-01  8.00000000E-01  1.50000000E+00  1.50000000E+00
  8.00000000E-01  8.00000000E-01  1.50000000E+00  1.50000000E+00  8.00000000E-01
  8.00000000E-01  1.50000000E+00  1.50000000E+00  8.00000000E-01  8.00000000E-01
  1.50000000E+00  1.50000000E+00  8.00000000E-01  8.00000000E-01  1.50000000E+00
  1.50000000E+00  8.00000000E-01  8.00000000E-01  1.50000000E+00  1.50000000E+00
  8.00000000E-01  8.00000000E-01  1.50000000E+00  1.50000000E+00  8.00000000E-01
  8.00000000E-01  1.50000000E+00  1.50000000E+00  8.00000000E-01  8.00000000E-01
  1.50000000E+00  1.50000000E+00  8.00000000E-01  8.00000000E-01  1.50000000E+00
  1.50000000E+00  8.00000000E-01  8.00000000E-01  1.50000000E+00  1.50000000E+00
  8.00000000E-01  8.00000000E-01  1.50000000E+00  1.50000000E+00  8.00000000E-01
  8.00000000E-01  1.50000000E+00  1.50000000E+00  8.00000000E-01  8.00000000E-01
  1.50000000E+00  1.50000000E+00  8.00000000E-01  8.00000000E-01  1.50000000E+00
  1.50000000E+00  8.00000000E-01  8.00000000E-01  1.50000000E+00  1.50000000E+00
  8.00000000E-01  8.00000000E-01  1.50000000E+00  1.50000000E+00  8.00000000E-01
  8.00000000E-01  1.50000000E+00  1.50000000E+00  8.00000000E-01  8.00000000E-01
  1.50000000E+00  1.50000000E+00  8.00000000E-01  8.00000000E-01  1.50000000E+00
  1.50000000E+00  8.00000000E-01  8.00000000E-01  1.50000000E+00  1.50000000E+00
  8.00000000E-01  8.00000000E-01  1.50000000E+00  1.50000000E+00  8.00000000E-01
  8.00000000E-01  1.50000000E+00  1.50000000E+00  8.00000000E-01  8.00000000E-01
  1.50000000E+00  1.50000000E+00  8.00000000E-01  8.00000000E-01  1.50000000E+00
  1.50000000E+00  8.00000000E-01  8.00000000E-01  1.50000000E+00  1.50000000E+00
  8.00000000E-01  8.00000000E-01  1.50000000E+00  1.50000000E+00  8.00000000E-01
  8.00000000E-01  1.50000000E+00  1.50000000E+00  8.00000000E-01  8.00000000E-01
  1.50000000E+00  1.50000000E+00  8.00000000E-01  8.00000000E-01  1.50000000E+00
  1.50000000E+00  8.00000000E-01  8.00000000E-01  1.50000000E+00  1.50000000E+00
  8.00000000E-01  8.00000000E-01  1.50000000E+00  1.50000000E+00  8.00000000E-01
  8.00000000E-01  1.50000000E+00  1.50000000E+00  8.00000000E-01  8.00000000E-01
  1.50000000E+00  1.50000000E+00  8.00000000E-01  8.00000000E-01  1.50000000E+00
  1.50000000E+00  8.00000000E-01  8.00000000E-01  1.50000000E+00  1.50000000E+00
  8.00000000E-01  8.00000000E-01  1.50000000E+00  1.50000000E+00  8.00000000E-01
  8.00000000E-01  1.50000000E+00  1.50000000E+00  8.00000000E-01  8.00000000E-01
  1.50000000E+00  1.50000000E+00  8.00000000E-01  8.00000000E-01  1.50000000E+00
  1.50000000E+00  8.00000000E-01  8.00000000E-01  1.50000000E+00  1.50000000E+00
  8.00000000E-01  8.00000000E-01  1.50000000E+00  1.50000000E+00  8.00000000E-01
  8.00000000E-01  1.50000000E+00  1.50000000E+00  8.00000000E-01  8.00000000E-01
  1.50000000E+00  1.50000000E+00  8.00000000E-01  8.00000000E-01  1.50000000E+00
  1.50000000E+00  8.00000000E-01  8.00000000E-01  1.50000000E+00  1.50000000E+00
  8.00000000E-01  8.00000000E-01  1.50000000E+00  1.50000000E+00  8.00000000E-01
  8.00000000E-01  1.50000000E+00  1.50000000E+00  8.00000000E-01  8.00000000E-01
  1.50000000E+00  1.50000000E+00  8.00000000E-01  8.00000000E-01  1.50000000E+00
  1.50000000E+00  8.00000000E-01  8.00000000E-01  1.50000000E+00  1.50000000E+00
  8.00000000E-01  8.00000000E-01  1.50000000E+00  1.50000000E+00  8.00000000E-01
  8.00000000E-01  1.50000000E+00  1.50000000E+00  8.00000000E-01  8.00000000E-01
  1.50000000E+00  1.50000000E+00  8.00000000E-01  8.00000000E-01  1.50000000E+00
  1.50000000E+00  8.00000000E-01  8.00000000E-01  1.50000000E+00  1.50000000E+00
  8.00000000E-01  8.00000000E-01  1.50000000E+00  1.50000000E+00  8.00000000E-01
  8.00000000E-01  1.50000000E+00  1.50000000E+00  8.00000000E-01  8.00000000E-01
  1.50000000E+00  1.50000000E+00  8.00000000E-01  8.00000000E-01  1.50000000E+00
  1.50000000E+00  8.00000000E-01  8.00000000E-01  1.50000000E+00  1.50000000E+00
  8.00000000E-01  8.00000000E-01  1.50000000E+00  1.50000000E+00  8.00000000E-01
  8.00000000E-01  1.50000000E+00  1.50000000E+00  8.00000000E-01  8.00000000E-01
  1.50000000E+00  1.50000000E+00  8.00000000E-01  8.00000000E-01  1.50000000E+00
  1.50000000E+00  8.00000000E-01  8.00000000E-01  1.50000000E+00  1.50000000E+00
  8.00000000E-01  8.00000000E-01  1.50000000E+00  1.50000000E+00  8.00000000E-01
  8.00000000E-01  1.50000000E+00  1.50000000E+00  8.00000000E-01  8.00000000E-01
  1.50000000E+00  1.50000000E+00  8.00000000E-01  8.00000000E-01  1.50000000E+00
  1.50000000E+00  8.00000000E-01  8.00000000E-01  1.50000000E+00  1.50000000E+00
  8.00000000E-01  8.00000000E-01  1.50000000E+00  1.50000000E+00  8.00000000E-01
  8.00000000E-01  1.50000000E+00  1.50000000E+00  8.00000000E-01  8.00000000E-01
  1.50000000E+00  1.50000000E+00  8.00000000E-01  8.00000000E-01  1.50000000E+00
  1.50000000E+00  8.00000000E-01  8.00000000E-01  1.50000000E+00  1.50000000E+00
  8.00000000E-01  8.00000000E-01  1.50000000E+00  1.50000000E+00  8.00000000E-01
  8.00000000E-01  1.50000000E+00  1.50000000E+00  8.00000000E-01  8.00000000E-01
  1.50000000E+00  1.50000000E+00  8.00000000E-01  8.00000000E-01  1.50000000E+00
  1.50000000E+00  8.00000000E-01  8.00000000E-01  1.50000000E+00  1.50000000E+00
  8.00000000E-01  8.00000000E-01  1.50000000E+00  1.50000000E+00  8.00000000E-01
  8.00000000E-01  1.50000000E+00  1.50000000E+00  8.00000000E-01  8.00000000E-01
  1.50000000E+00  1.50000000E+00  8.00000000E-01  8.00000000E-01  1.50000000E+00
  1.50000000E+00  8.00000000E-01  8.00000000E-01  1.50000000E+00  1.50000000E+00
  8.00000000E-01  8.00000000E-01  1.50000000E+00  1.50000000E+00  8.00000000E-01
  8.00000000E-01  1.50000000E+00  1.50000000E+00  8.00000000E-01  8.00000000E-01
  1.50000000E+00  1.50000000E+00  8.00000000E-01  8.00000000E-01  1.50000000E+00
  1.50000000E+00  8.00000000E-01  8.00000000E-01  1.50000000E+00  1.50000000E+00
  8.00000000E-01  8.00000000E-01  1.50000000E+00  1.50000000E+00  8.00000000E-01
  8.00000000E-01  1.50000000E+00  1.50000000E+00  8.00000000E-01  8.00000000E-01
  1.50000000E+00  1.50000000E+00  8.00000000E-01  8.00000000E-01  1.50000000E+00
  1.50000000E+00  8.00000000E-01  8.00000000E-01  1.50000000E+00  1.50000000E+00
  8.00000000E-01  8.00000000E-01  1.50000000E+00  1.50000000E+00  8.00000000E-01
  8.00000000E-01  1.50000000E+00  1.50000000E+00  8.00000000E-01  8.00000000E-01
  1.50000000E+00  1.50000000E+00  8.00000000E-01  8.00000000E-01  1.50000000E+00
  1.50000000E+00  8.00000000E-01  8.00000000E-01  1.50000000E+00  1.50000000E+00
  8.00000000E-01  8.00000000E-01  1.50000000E+00  1.50000000E+00  8.00000000E-01
  8.00000000E-01  1.50000000E+00  1.50000000E+00  8.00000000E-01  8.00000000E-01
  1.50000000E+00  1.50000000E+00  8.00000000E-01  8.00000000E-01  1.50000000E+00
  1.50000000E+00  8.00000000E-01  8.00000000E-01  1.50000000E+00  1.50000000E+00
  8.00000000E-01  8.00000000E-01  1.50000000E+00  1.50000000E+00  8.00000000E-01
  8.00000000E-01  1.50000000E+00  1.50000000E+00  8.00000000E-01  8.00000000E-01
  1.50000000E+00  1.50000000E+00  8.00000000E-01  8.00000000E-01  1.50000000E+00
  1.50000000E+00  8.00000000E-01  8.00000000E-01  1.50000000E+00  1.50000000E+00
  8.00000000E-01  8.00000000E-01  1.50000000E+00  1.50000000E+00  8.00000000E-01
  8.00000000E-01  1.50000000E+00  1.50000000E+00  8.00000000E-01  8.00000000E-01
  1.50000000E+00  1.50000000E+00  8.00000000E-01  8.00000000E-01  1.50000000E+00
  1.50000000E+00  8.00000000E-01  8.00000000E-01  1.50000000E+00  1.50000000E+00
  8.00000000E-01  8.00000000E-01  1.50000000E+00  1.50000000E+00  8.00000000E-01
  8.00000000E-01  1.50000000E+00  1.50000000E+00  8.00000000E-01  8.00000000E-01
  1.50000000E+00  1.50000000E+00  8.00000000E-01  8.00000000E-01  1.50000000E+00
  1.50000000E+00  8.00000000E-01  8.00000000E-01  1.50000000E+00  1.50000000E+00
  8.00000000E-01  8.00000000E-01  1.50000000E+00  1.50000000E+00  8.00000000E-01
  8.00000000E-01  1.50000000E+00  1.50000000E+00  8.00000000E-01  8.00000000E-01
  1.50000000E+00  1.50000000E+00  8.00000000E-01  8.00000000E-01  1.50000000E+00
  1.50000000E+00  8.00000000E-01  8.00000000E-01  1.50000000E+00  1.50000000E+00
  8.00000000E-01  8.00000000E-01  1.50000000E+00  1.50000000E+00  8.00000000E-01
  8.00000000E-01  1.50000000E+00  1.50000000E+00  8.00000000E-01  8.00000000E-01
  1.50000000E+00  1.50000000E+00  8.00000000E-01  8.00000000E-01  1.50000000E+00
  1.50000000E+00  8.00000000E-01  8.00000000E-01  1.50000000E+00  1.50000000E+00
  8.00000000E-01  8.00000000E-01  1.50000000E+00  1.50000000E+00  8.00000000E-01
  8.00000000E-01  1.50000000E+00  1.50000000E+00  8.00000000E-01  8.00000000E-01
  1.50000000E+00  1.50000000E+00  8.00000000E-01  8.00000000E-01  1.50000000E+00
  1.50000000E+00  8.00000000E-01  8.00000000E-01  1.50000000E+00  1.50000000E+00
  8.00000000E-01  8.00000000E-01  1.50000000E+00  1.50000000E+00  8.00000000E-01
  8.00000000E-01  1.50000000E+00  1.50000000E+00  8.00000000E-01  8.00000000E-01
  1.50000000E+00  1.50000000E+00  8.00000000E-01  8.00000000E-01  1.50000000E+00
  1.50000000E+00  8.00000000E-01  8.00000000E-01  1.50000000E+00  1.50000000E+00
  8.00000000E-01  8.00000000E-01  1.50000000E+00  1.50000000E+00  8.00000000E-01
  8.00000000E-01  1.50000000E+00  1.50000000E+00  8.00000000E-01  8.00000000E-01
  1.50000000E+00  1.50000000E+00  8.00000000E-01  8.00000000E-01  1.50000000E+00
  1.50000000E+00  8.00000000E-01  8.00000000E-01  1.50000000E+00  1.50000000E+00
  8.00000000E-01  8.00000000E-01  1.50000000E+00  1.50000000E+00  8.00000000E-01
  8.00000000E-01  1.50000000E+00  1.50000000E+00  8.00000000E-01  8.00000000E-01
  1.50000000E+00  1.50000000E+00  8.00000000E-01  8.00000000E-01  1.50000000E+00
  1.50000000E+00  8.00000000E-01  8.00000000E-01  1.50000000E+00  1.50000000E+00
  8.00000000E-01  8.00000000E-01  1.50000000E+00  1.50000000E+00  8.00000000E-01
  8.00000000E-01  1.50000000E+00  1.50000000E+00  8.00000000E-01  8.00000000E-01
  1.50000000E+00  1.50000000E+00  8.00000000E-01  8.00000000E-01  1.50000000E+00
  1.50000000E+00  8.00000000E-01  8.00000000E-01  1.50000000E+00  1.50000000E+00
  8.00000000E-01  8.00000000E-01  1.50000000E+00  1.50000000E+00  8.00000000E-01
  8.00000000E-01  1.50000000E+00  1.50000000E+00  8.00000000E-01  8.00000000E-01
  1.50000000E+00  1.50000000E+00  8.00000000E-01  8.00000000E-01  1.50000000E+00
  1.50000000E+00  8.00000000E-01  8.00000000E-01  1.50000000E+00  1.50000000E+00
  8.00000000E-01  8.00000000E-01  1.50000000E+00  1.50000000E+00  8.00000000E-01
  8.00000000E-01  1.50000000E+00  1.50000000E+00  8.00000000E-01  8.00000000E-01
  1.50000000E+00  1.50000000E+00  8.00000000E-01  8.00000000E-01  1.50000000E+00
  1.50000000E+00  8.00000000E-01  8.00000000E-01  1.50000000E+00  1.50000000E+00
  8.00000000E-01  8.00000000E-01  1.50000000E+00  1.50000000E+00  8.00000000E-01
  8.00000000E-01  1.50000000E+00  1.50000000E+00  8.00000000E-01  8.00000000E-01
  1.50000000E+00  1.50000000E+00  8.00000000E-01  8.00000000E-01  1.50000000E+00
  1.50000000E+00  8.00000000E-01  8.00000000E-01  1.50000000E+00  1.50000000E+00
  8.00000000E-01  8.00000000E-01  1.50000000E+00  1.50000000E+00  8.00000000E-01
  8.00000000E-01  1.50000000E+00  1.50000000E+00  8.00000000E-01  8.00000000E-01
  1.50000000E+00  1.50000000E+00  8.00000000E-01  8.00000000E-01  1.50000000E+00
  1.50000000E+00  8.00000000E-01  8.00000000E-01  1.50000000E+00  1.50000000E+00
  8.00000000E-01  8.00000000E-01  1.50000000E+00  1.50000000E+00  8.00000000E-01
  8.00000000E-01  1.50000000E+00  1.50000000E+00  8.00000000E-01  8.00000000E-01
  1.50000000E+00  1.50000000E+00  8.00000000E-01  8.00000000E-01  1.50000000E+00
  1.50000000E+00  8.00000000E-01  8.00000000E-01  1.50000000E+00  1.50000000E+00
  8.00000000E-01  8.00000000E-01  1.50000000E+00  1.50000000E+00  8.00000000E-01
  8.00000000E-01  1.50000000E+00  1.50000000E+00  8.00000000E-01  8.00000000E-01
  1.50000000E+00  1.50000000E+00  8.00000000E-01  8.00000000E-01  1.50000000E+00
  1.50000000E+00  8.00000000E-01  8.00000000E-01  1.50000000E+00  1.50000000E+00
  8.00000000E-01  8.00000000E-01  1.50000000E+00  1.50000000E+00  8.00000000E-01
  8.00000000E-01  1.50000000E+00  1.50000000E+00  8.00000000E-01  8.00000000E-01
  1.50000000E+00  1.50000000E+00  8.00000000E-01  8.00000000E-01  1.50000000E+00
  1.50000000E+00  8.00000000E-01  8.00000000E-01  1.50000000E+00  1.50000000E+00
  8.00000000E-01  8.00000000E-01  1.50000000E+00  1.50000000E+00  8.00000000E-01
  8.00000000E-01  1.50000000E+00  1.50000000E+00  8.00000000E-01  8.00000000E-01
  1.50000000E+00  1.50000000E+00  8.00000000E-01  8.00000000E-01  1.50000000E+00
  1.50000000E+00  8.00000000E-01  8.00000000E-01  1.50000000E+00  1.50000000E+00
  8.00000000E-01  8.00000000E-01  1.50000000E+00  1.50000000E+00  8.00000000E-01
  8.00000000E-01  1.50000000E+00  1.50000000E+00  8.00000000E-01  8.00000000E-01
  1.50000000E+00  1.50000000E+00  8.00000000E-01  8.00000000E-01  1.50000000E+00
  1.50000000E+00  8.00000000E-01  8.00000000E-01  1.50000000E+00  1.50000000E+00
  8.00000000E-01  8.00000000E-01  1.50000000E+00  1.50000000E+00  8.00000000E-01
  8.00000000E-01  1.50000000E+00  1.50000000E+00  8.00000000E-01  8.00000000E-01
  1.50000000E+00  1.50000000E+00  8.00000000E-01  8.00000000E-01  1.50000000E+00
  1.50000000E+00  8.00000000E-01  8.00000000E-01  1.50000000E+00  1.50000000E+00
  8.00000000E-01  8.00000000E-01  1.50000000E+00  1.50000000E+00  8.00000000E-01
  8.00000000E-01  1.50000000E+00  1.50000000E+00  8.00000000E-01  8.00000000E-01
  1.50000000E+00  1.50000000E+00  8.00000000E-01  8.00000000E-01  1.50000000E+00
  1.50000000E+00  8.00000000E-01  8.00000000E-01  1.50000000E+00  1.50000000E+00
  8.00000000E-01  8.00000000E-01  1.50000000E+00  1.50000000E+00  8.00000000E-01
  8.00000000E-01  1.50000000E+00  1.50000000E+00  8.00000000E-01  8.00000000E-01
  1.50000000E+00  1.50000000E+00  8.00000000E-01  8.00000000E-01  1.50000000E+00
  1.50000000E+00  8.00000000E-01  8.00000000E-01  1.50000000E+00  1.50000000E+00
  8.00000000E-01  8.00000000E-01  1.50000000E+00  1.50000000E+00  8.00000000E-01
  8.00000000E-01  1.50000000E+00  1.50000000E+00  8.00000000E-01  8.00000000E-01
  1.50000000E+00  1.50000000E+00  8.00000000E-01  8.00000000E-01  1.50000000E+00
  1.50000000E+00  8.00000000E-01  8.00000000E-01  1.50000000E+00  1.50000000E+00
  8.00000000E-01  8.00000000E-01  1.50000000E+00  1.50000000E+00  8.00000000E-01
  8.00000000E-01  1.50000000E+00  1.50000000E+00  8.00000000E-01  8.00000000E-01
  1.50000000E+00  1.50000000E+00  8.00000000E-01  8.00000000E-01  1.50000000E+00
  1.50000000E+00  8.00000000E-01  8.00000000E-01  1.50000000E+00  1.50000000E+00
  8.00000000E-01  8.00000000E-01  1.50000000E+00  1.50000000E+00  8.00000000E-01
  8.00000000E-01  1.50000000E+00  1.50000000E+00  8.00000000E-01  8.00000000E-01
  1.50000000E+00  1.50000000E+00  8.00000000E-01  8.00000000E-01  1.50000000E+00
  1.50000000E+00  8.00000000E-01  8.00000000E-01  1.50000000E+00  1.50000000E+00
  8.00000000E-01  8.00000000E-01  1.50000000E+00  1.50000000E+00  8.00000000E-01
  8.00000000E-01  1.50000000E+00  1.50000000E+00  8.00000000E-01  8.00000000E-01
  1.50000000E+00  1.50000000E+00  8.00000000E-01  8.00000000E-01  1.50000000E+00
  1.50000000E+00  8.00000000E-01  8.00000000E-01  1.50000000E+00  1.50000000E+00
  8.00000000E-01  8.00000000E-01  1.50000000E+00  1.50000000E+00  8.00000000E-01
  8.00000000E-01  1.50000000E+00  1.50000000E+00  8.00000000E-01  8.00000000E-01
  1.50000000E+00  1.50000000E+00  8.00000000E-01  8.00000000E-01  1.50000000E+00
  1.50000000E+00  8.00000000E-01  8.00000000E-01  1.50000000E+00  1.50000000E+00
  8.00000000E-01  8.00000000E-01  1.50000000E+00  1.50000000E+00  8.00000000E-01
  8.00000000E-01  1.50000000E+00  1.50000000E+00  8.00000000E-01  8.00000000E-01
  1.50000000E+00  1.50000000E+00  8.00000000E-01  8.00000000E-01  1.50000000E+00
  1.50000000E+00  8.00000000E-01  8.00000000E-01  1.50000000E+00  1.50000000E+00
  8.00000000E-01  8.00000000E-01  1.50000000E+00  1.50000000E+00  8.00000000E-01
  8.00000000E-01  1.50000000E+00  1.50000000E+00  8.00000000E-01  8.00000000E-01
  1.50000000E+00  1.50000000E+00  8.00000000E-01  8.00000000E-01  1.50000000E+00
  1.50000000E+00  8.00000000E-01  8.00000000E-01  1.50000000E+00  1.50000000E+00
  8.00000000E-01  8.00000000E-01  1.50000000E+00  1.50000000E+00  8.00000000E-01
  8.00000000E-01  1.50000000E+00  1.50000000E+00  8.00000000E-01  8.00000000E-01
  1.50000000E+00  1.50000000E+00  8.00000000E-01  8.00000000E-01  1.50000000E+00
  1.50000000E+00  8.00000000E-01  8.00000000E-01  1.50000000E+00  1.50000000E+00
  8.00000000E-01  8.00000000E-01  1.50000000E+00  1.50000000E+00  8.00000000E-01
  8.00000000E-01  1.50000000E+00  1.50000000E+00  8.00000000E-01  8.00000000E-01
  1.50000000E+00  1.50000000E+00  8.00000000E-01  8.00000000E-01  1.50000000E+00
  1.50000000E+00  8.00000000E-01  8.00000000E-01  1.50000000E+00  1.50000000E+00
  8.00000000E-01  8.00000000E-01  1.50000000E+00  1.50000000E+00  8.00000000E-01
  8.00000000E-01  1.50000000E+00  1.50000000E+00  8.00000000E-01  8.00000000E-01
  1.50000000E+00  1.50000000E+00  8.00000000E-01  8.00000000E-01  1.50000000E+00
  1.50000000E+00  8.00000000E-01  8.00000000E-01  1.50000000E+00  1.50000000E+00
  8.00000000E-01  8.00000000E-01  1.50000000E+00  1.50000000E+00  8.00000000E-01
  8.00000000E-01  1.50000000E+00  1.50000000E+00  8.00000000E-01  8.00000000E-01
  1.50000000E+00  1.50000000E+00  8.00000000E-01  8.00000000E-01  1.50000000E+00
  1.50000000E+00  8.00000000E-01  8.00000000E-01  1.50000000E+00  1.50000000E+00
  8.00000000E-01  8.00000000E-01  1.50000000E+00  1.50000000E+00  8.00000000E-01
  8.00000000E-01  1.50000000E+00  1.50000000E+00  8.00000000E-01  8.00000000E-01
  1.50000000E+00  1.50000000E+00  8.00000000E-01  8.00000000E-01  1.50000000E+00
  1.50000000E+00  8.00000000E-01  8.00000000E-01  1.50000000E+00  1.50000000E+00
  8.00000000E-01  8.00000000E-01  1.50000000E+00  1.50000000E+00  8.00000000E-01
  8.00000000E-01  1.50000000E+00  1.50000000E+00  8.00000000E-01  8.00000000E-01
  1.50000000E+00  1.50000000E+00  8.00000000E-01  8.00000000E-01  1.50000000E+00
  1.50000000E+00  8.00000000E-01  8.00000000E-01  1.50000000E+00  1.50000000E+00
  8.00000000E-01  8.00000000E-01  1.50000000E+00  1.50000000E+00  8.00000000E-01
  8.00000000E-01  1.50000000E+00  1.50000000E+00  8.00000000E-01  8.00000000E-01
  1.50000000E+00  1.50000000E+00  8.00000000E-01  8.00000000E-01  1.50000000E+00
  1.50000000E+00  8.00000000E-01  8.00000000E-01  1.50000000E+00  1.50000000E+00
  8.00000000E-01  8.00000000E-01  1.50000000E+00  1.50000000E+00  8.00000000E-01
  8.00000000E-01  1.50000000E+00  1.50000000E+00  8.00000000E-01  8.00000000E-01
  1.50000000E+00  1.50000000E+00  8.00000000E-01  8.00000000E-01  1.50000000E+00
  1.50000000E+00  8.00000000E-01  8.00000000E-01  1.50000000E+00  1.50000000E+00
  8.00000000E-01  8.00000000E-01  1.50000000E+00  1.50000000E+00  8.00000000E-01
  8.00000000E-01  1.50000000E+00  1.50000000E+00  8.00000000E-01  8.00000000E-01
  1.50000000E+00  1.50000000E+00  8.00000000E-01  8.00000000E-01  1.50000000E+00
  1.50000000E+00  8.00000000E-01  8.00000000E-01  1.50000000E+00  1.50000000E+00
  8.00000000E-01  8.00000000E-01  1.50000000E+00  1.50000000E+00  8.00000000E-01
  8.00000000E-01  1.50000000E+00  1.50000000E+00  8.00000000E-01  8.00000000E-01
  1.50000000E+00  1.50000000E+00  8.00000000E-01  8.00000000E-01  1.50000000E+00
  1.50000000E+00  8.00000000E-01  8.00000000E-01  1.50000000E+00  1.50000000E+00
  8.00000000E-01  8.00000000E-01  1.50000000E+00  1.50000000E+00  8.00000000E-01
  8.00000000E-01  1.50000000E+00  1.50000000E+00  8.00000000E-01  8.00000000E-01
  1.50000000E+00  1.50000000E+00  8.00000000E-01  8.00000000E-01  1.50000000E+00
  1.50000000E+00  8.00000000E-01  8.00000000E-01  1.50000000E+00  1.50000000E+00
  8.00000000E-01  8.00000000E-01  1.50000000E+00  1.50000000E+00  8.00000000E-01
  8.00000000E-01  1.50000000E+00  1.50000000E+00  8.00000000E-01  8.00000000E-01
  1.50000000E+00  1.50000000E+00  8.00000000E-01  8.00000000E-01  1.50000000E+00
  1.50000000E+00  8.00000000E-01  8.00000000E-01  1.50000000E+00  1.50000000E+00
  8.00000000E-01  8.00000000E-01  1.50000000E+00  1.50000000E+00  8.00000000E-01
  8.00000000E-01  1.50000000E+00  1.50000000E+00  8.00000000E-01  8.00000000E-01
  1.50000000E+00  1.50000000E+00  8.00000000E-01  8.00000000E-01  1.50000000E+00
  1.50000000E+00  8.00000000E-01  8.00000000E-01  1.50000000E+00  1.50000000E+00
  8.00000000E-01  8.00000000E-01  1.50000000E+00  1.50000000E+00  8.00000000E-01
  8.00000000E-01  1.50000000E+00  1.50000000E+00  8.00000000E-01  8.00000000E-01
  1.50000000E+00  1.50000000E+00  8.00000000E-01  8.00000000E-01  1.50000000E+00
  1.50000000E+00  8.00000000E-01  8.00000000E-01  1.50000000E+00  1.50000000E+00
  8.00000000E-01  8.00000000E-01  1.50000000E+00  1.50000000E+00  8.00000000E-01
  8.00000000E-01  1.50000000E+00  1.50000000E+00  8.00000000E-01  8.00000000E-01
  1.50000000E+00  1.50000000E+00  8.00000000E-01  8.00000000E-01  1.50000000E+00
  1.50000000E+00  8.00000000E-01  8.00000000E-01  1.50000000E+00  1.50000000E+00
  8.00000000E-01  8.00000000E-01  1.50000000E+00  1.50000000E+00  8.00000000E-01
  8.00000000E-01  1.50000000E+00  1.50000000E+00  8.00000000E-01  8.00000000E-01
  1.50000000E+00  1.50000000E+00  8.00000000E-01  8.00000000E-01  1.50000000E+00
  1.50000000E+00  8.00000000E-01  8.00000000E-01  1.50000000E+00  1.50000000E+00
  8.00000000E-01  8.00000000E-01  1.50000000E+00  1.50000000E+00  8.00000000E-01
  8.00000000E-01  1.50000000E+00  1.50000000E+00  8.00000000E-01  8.00000000E-01
  1.50000000E+00  1.50000000E+00  8.00000000E-01  8.00000000E-01  1.50000000E+00
  1.50000000E+00  8.00000000E-01  8.00000000E-01  1.50000000E+00  1.50000000E+00
  8.00000000E-01  8.00000000E-01  1.50000000E+00  1.50000000E+00  8.00000000E-01
  8.00000000E-01  1.50000000E+00  1.50000000E+00  8.00000000E-01  8.00000000E-01
  1.50000000E+00  1.50000000E+00  8.00000000E-01  8.00000000E-01  1.50000000E+00
  1.50000000E+00  8.00000000E-01  8.00000000E-01  1.50000000E+00  1.50000000E+00
  8.00000000E-01  8.00000000E-01  1.50000000E+00  1.50000000E+00  8.00000000E-01
  8.00000000E-01  1.50000000E+00  1.50000000E+00  8.00000000E-01  8.00000000E-01
  1.50000000E+00  1.50000000E+00  8.00000000E-01  8.00000000E-01  1.50000000E+00
  1.50000000E+00  8.00000000E-01  8.00000000E-01  1.50000000E+00  1.50000000E+00
  8.00000000E-01  8.00000000E-01  1.50000000E+00  1.50000000E+00  8.00000000E-01
  8.00000000E-01  1.50000000E+00  1.50000000E+00  8.00000000E-01  8.00000000E-01
  1.50000000E+00  1.50000000E+00  8.00000000E-01  8.00000000E-01  1.50000000E+00
  1.50000000E+00  8.00000000E-01  8.00000000E-01  1.50000000E+00  1.50000000E+00
  8.00000000E-01  8.00000000E-01  1.50000000E+00  1.50000000E+00  8.00000000E-01
  8.00000000E-01  1.50000000E+00  1.50000000E+00  8.00000000E-01  8.00000000E-01
  1.50000000E+00  1.50000000E+00  8.00000000E-01  8.00000000E-01  1.50000000E+00
  1.50000000E+00  8.00000000E-01  8.00000000E-01  1.50000000E+00  1.50000000E+00
  8.00000000E-01  8.00000000E-01  1.50000000E+00  1.50000000E+00  8.00000000E-01
  8.00000000E-01  1.50000000E+00  1.50000000E+00  8.00000000E-01  8.00000000E-01
  1.50000000E+00  1.50000000E+00  8.00000000E-01  8.00000000E-01  1.50000000E+00
  1.50000000E+00  8.00000000E-01  8.00000000E-01  1.50000000E+00  1.50000000E+00
  8.00000000E-01  8.00000000E-01  1.50000000E+00  1.50000000E+00  8.00000000E-01
  8.00000000E-01  1.50000000E+00  1.50000000E+00  8.00000000E-01  8.00000000E-01
  1.50000000E+00  1.50000000E+00  8.00000000E-01  8.00000000E-01  1.50000000E+00
  1.50000000E+00  8.00000000E-01  8.00000000E-01  1.50000000E+00  1.50000000E+00
  8.00000000E-01  8.00000000E-01  1.50000000E+00  1.50000000E+00  8.00000000E-01
  8.00000000E-01  1.50000000E+00  1.50000000E+00  8.00000000E-01  8.00000000E-01
  1.50000000E+00  1.50000000E+00  8.00000000E-01  8.00000000E-01  1.50000000E+00
  1.50000000E+00  8.00000000E-01  8.00000000E-01  1.50000000E+00  1.50000000E+00
  8.00000000E-01  8.00000000E-01  1.50000000E+00  1.50000000E+00  8.00000000E-01
  8.00000000E-01  1.50000000E+00  1.50000000E+00  8.00000000E-01  8.00000000E-01
  1.50000000E+00  1.50000000E+00  8.00000000E-01  8.00000000E-01  1.50000000E+00
  1.50000000E+00  8.00000000E-01  8.00000000E-01  1.50000000E+00  1.50000000E+00
  8.00000000E-01  8.00000000E-01  1.50000000E+00  1.50000000E+00  8.00000000E-01
  8.00000000E-01  1.50000000E+00  1.50000000E+00  8.00000000E-01  8.00000000E-01
  1.50000000E+00  1.50000000E+00  8.00000000E-01  8.00000000E-01  1.50000000E+00
  1.50000000E+00  8.00000000E-01  8.00000000E-01  1.50000000E+00  1.50000000E+00
  8.00000000E-01  8.00000000E-01  1.50000000E+00  1.50000000E+00  8.00000000E-01
  8.00000000E-01  1.50000000E+00  1.50000000E+00  8.00000000E-01  8.00000000E-01
  1.50000000E+00  1.50000000E+00  8.00000000E-01  8.00000000E-01  1.50000000E+00
  1.50000000E+00  8.00000000E-01  8.00000000E-01  1.50000000E+00  1.50000000E+00
  8.00000000E-01  8.00000000E-01  1.50000000E+00  1.50000000E+00  8.00000000E-01
  8.00000000E-01  1.50000000E+00  1.50000000E+00  8.00000000E-01  8.00000000E-01
  1.50000000E+00  1.50000000E+00  8.00000000E-01  8.00000000E-01  1.50000000E+00
  1.50000000E+00  8.00000000E-01  8.00000000E-01  1.50000000E+00  1.50000000E+00
  8.00000000E-01  8.00000000E-01  1.50000000E+00  1.50000000E+00  8.00000000E-01
  8.00000000E-01  1.50000000E+00  1.50000000E+00  8.00000000E-01  8.00000000E-01
  1.50000000E+00  1.50000000E+00  8.00000000E-01  8.00000000E-01  1.50000000E+00
  1.50000000E+00  8.00000000E-01  8.00000000E-01  1.50000000E+00  1.50000000E+00
  8.00000000E-01  8.00000000E-01  1.50000000E+00  1.50000000E+00  8.00000000E-01
  8.00000000E-01  1.50000000E+00  1.50000000E+00  8.00000000E-01  8.00000000E-01
  1.50000000E+00  1.50000000E+00  8.00000000E-01  8.00000000E-01  1.50000000E+00
  1.50000000E+00  8.00000000E-01  8.00000000E-01  1.50000000E+00  1.50000000E+00
  8.00000000E-01  8.00000000E-01  1.50000000E+00  1.50000000E+00  8.00000000E-01
  8.00000000E-01  1.50000000E+00  1.50000000E+00  8.00000000E-01  8.00000000E-01
  1.50000000E+00  1.50000000E+00  8.00000000E-01  8.00000000E-01  1.50000000E+00
  1.50000000E+00  8.00000000E-01  8.00000000E-01  1.50000000E+00  1.50000000E+00
  8.00000000E-01  8.00000000E-01  1.50000000E+00  1.50000000E+00  8.00000000E-01
  8.00000000E-01  1.50000000E+00  1.50000000E+00  8.00000000E-01  8.00000000E-01
  1.50000000E+00  1.50000000E+00  8.00000000E-01  8.00000000E-01  1.50000000E+00
  1.50000000E+00  8.00000000E-01  8.00000000E-01  1.50000000E+00  1.50000000E+00
  8.00000000E-01  8.00000000E-01  1.50000000E+00  1.50000000E+00  8.00000000E-01
  8.00000000E-01  1.50000000E+00  1.50000000E+00  8.00000000E-01  8.00000000E-01
  1.50000000E+00  1.50000000E+00  8.00000000E-01  8.00000000E-01  1.50000000E+00
  1.50000000E+00  8.00000000E-01  8.00000000E-01  1.50000000E+00  1.50000000E+00
  8.00000000E-01  8.00000000E-01  1.50000000E+00  1.50000000E+00  8.00000000E-01
  8.00000000E-01  1.50000000E+00  1.50000000E+00  8.00000000E-01  8.00000000E-01
  1.50000000E+00  1.50000000E+00  8.00000000E-01  8.00000000E-01  1.50000000E+00
  1.50000000E+00  8.00000000E-01  8.00000000E-01  1.50000000E+00  1.50000000E+00
  8.00000000E-01  8.00000000E-01  1.50000000E+00  1.50000000E+00  8.00000000E-01
  8.00000000E-01  1.50000000E+00  1.50000000E+00  8.00000000E-01  8.00000000E-01
  1.50000000E+00  1.50000000E+00  8.00000000E-01  8.00000000E-01  1.50000000E+00
  1.50000000E+00  8.00000000E-01  8.00000000E-01  1.50000000E+00  1.50000000E+00
  8.00000000E-01  8.00000000E-01  1.50000000E+00  1.50000000E+00  8.00000000E-01
  8.00000000E-01  1.50000000E+00  1.50000000E+00  8.00000000E-01  8.00000000E-01
  1.50000000E+00  1.50000000E+00  8.00000000E-01  8.00000000E-01  1.50000000E+00
  1.50000000E+00  8.00000000E-01  8.00000000E-01  1.50000000E+00  1.50000000E+00
  8.00000000E-01  8.00000000E-01  1.50000000E+00  1.50000000E+00  8.00000000E-01
  8.00000000E-01  1.50000000E+00  1.50000000E+00  8.00000000E-01  8.00000000E-01
  1.50000000E+00  1.50000000E+00  8.00000000E-01  8.00000000E-01  1.50000000E+00
  1.50000000E+00  8.00000000E-01  8.00000000E-01  1.50000000E+00  1.50000000E+00
  8.00000000E-01  8.00000000E-01  1.50000000E+00  1.50000000E+00  8.00000000E-01
  8.00000000E-01  1.50000000E+00  1.50000000E+00  8.00000000E-01  8.00000000E-01
  1.50000000E+00  1.50000000E+00  8.00000000E-01  8.00000000E-01  1.50000000E+00
  1.50000000E+00  8.00000000E-01  8.00000000E-01  1.50000000E+00  1.50000000E+00
  8.00000000E-01  8.00000000E-01  1.50000000E+00  1.50000000E+00  8.00000000E-01
  8.00000000E-01  1.50000000E+00  1.50000000E+00  8.00000000E-01  8.00000000E-01
  1.50000000E+00  1.50000000E+00  8.00000000E-01  8.00000000E-01  1.50000000E+00
  1.50000000E+00  8.00000000E-01  8.00000000E-01  1.50000000E+00  1.50000000E+00
  8.00000000E-01  8.00000000E-01  1.50000000E+00  1.50000000E+00  8.00000000E-01
  8.00000000E-01  1.50000000E+00  1.50000000E+00  8.00000000E-01  8.00000000E-01
  1.50000000E+00  1.50000000E+00  8.00000000E-01  8.00000000E-01  1.50000000E+00
  1.50000000E+00  8.00000000E-01  8.00000000E-01  1.50000000E+00  1.50000000E+00
  8.00000000E-01  8.00000000E-01  1.50000000E+00  1.50000000E+00  8.00000000E-01
  8.00000000E-01  1.50000000E+00  1.50000000E+00  8.00000000E-01  8.00000000E-01
  1.50000000E+00  1.50000000E+00  8.00000000E-01  8.00000000E-01  1.50000000E+00
  1.50000000E+00  8.00000000E-01  8.00000000E-01  1.50000000E+00  1.50000000E+00
  8.00000000E-01  8.00000000E-01  1.50000000E+00  1.50000000E+00  8.00000000E-01
  8.00000000E-01  1.50000000E+00  1.50000000E+00  8.00000000E-01  8.00000000E-01
  1.50000000E+00  1.50000000E+00  8.00000000E-01  8.00000000E-01  1.50000000E+00
  1.50000000E+00  8.00000000E-01  8.00000000E-01  1.50000000E+00  1.50000000E+00
  8.00000000E-01  8.00000000E-01  1.50000000E+00  1.50000000E+00  8.00000000E-01
  8.00000000E-01  1.50000000E+00  1.50000000E+00  8.00000000E-01  8.00000000E-01
  1.50000000E+00  1.50000000E+00  8.00000000E-01  8.00000000E-01  1.50000000E+00
  1.50000000E+00  8.00000000E-01  8.00000000E-01  1.50000000E+00  1.50000000E+00
  8.00000000E-01  8.00000000E-01  1.50000000E+00  1.50000000E+00  8.00000000E-01
  8.00000000E-01  1.50000000E+00  1.50000000E+00  8.00000000E-01  8.00000000E-01
  1.50000000E+00  1.50000000E+00  8.00000000E-01  8.00000000E-01  1.50000000E+00
  1.50000000E+00  8.00000000E-01  8.00000000E-01  1.50000000E+00  1.50000000E+00
  8.00000000E-01  8.00000000E-01  1.50000000E+00  1.50000000E+00  8.00000000E-01
  8.00000000E-01  1.50000000E+00  1.50000000E+00  8.00000000E-01  8.00000000E-01
  1.50000000E+00  1.50000000E+00  8.00000000E-01  8.00000000E-01  1.50000000E+00
  1.50000000E+00  8.00000000E-01  8.00000000E-01  1.50000000E+00  1.50000000E+00
  8.00000000E-01  8.00000000E-01  1.50000000E+00  1.50000000E+00  8.00000000E-01
  8.00000000E-01  1.50000000E+00  1.50000000E+00  8.00000000E-01  8.00000000E-01
  1.50000000E+00  1.50000000E+00  8.00000000E-01  8.00000000E-01  1.50000000E+00
  1.50000000E+00  8.00000000E-01  8.00000000E-01  1.50000000E+00  1.50000000E+00
  8.00000000E-01  8.00000000E-01  1.50000000E+00  1.50000000E+00  8.00000000E-01
  8.00000000E-01  1.50000000E+00  1.50000000E+00  8.00000000E-01  8.00000000E-01
  1.50000000E+00  1.50000000E+00  8.00000000E-01  8.00000000E-01  1.50000000E+00
  1.50000000E+00  8.00000000E-01  8.00000000E-01  1.50000000E+00  1.50000000E+00
  8.00000000E-01  8.00000000E-01  1.50000000E+00  1.50000000E+00  8.00000000E-01
  8.00000000E-01  1.50000000E+00  1.50000000E+00  8.00000000E-01  8.00000000E-01
  1.50000000E+00  1.50000000E+00  8.00000000E-01  8.00000000E-01  1.50000000E+00
  1.50000000E+00  8.00000000E-01  8.00000000E-01  1.50000000E+00  1.50000000E+00
  8.00000000E-01  8.00000000E-01  1.50000000E+00  1.50000000E+00  8.00000000E-01
  8.00000000E-01  1.50000000E+00  1.50000000E+00  8.00000000E-01  8.00000000E-01
  1.50000000E+00  1.50000000E+00  8.00000000E-01  8.00000000E-01  1.50000000E+00
  1.50000000E+00  8.00000000E-01  8.00000000E-01  1.50000000E+00  1.50000000E+00
  8.00000000E-01  8.00000000E-01  1.50000000E+00  1.50000000E+00  8.00000000E-01
  8.00000000E-01  1.50000000E+00  1.50000000E+00  8.00000000E-01  8.00000000E-01
  1.50000000E+00  1.50000000E+00  8.00000000E-01  8.00000000E-01  1.50000000E+00
  1.50000000E+00  8.00000000E-01  8.00000000E-01  1.50000000E+00  1.50000000E+00
  8.00000000E-01  8.00000000E-01  1.50000000E+00  1.50000000E+00  8.00000000E-01
  8.00000000E-01  1.50000000E+00  1.50000000E+00  8.00000000E-01  8.00000000E-01
  1.50000000E+00  1.50000000E+00  8.00000000E-01  8.00000000E-01  1.50000000E+00
  1.50000000E+00  8.00000000E-01  8.00000000E-01  1.50000000E+00  1.50000000E+00
  8.00000000E-01  8.00000000E-01  1.50000000E+00  1.50000000E+00  8.00000000E-01
  8.00000000E-01  1.50000000E+00  1.50000000E+00  8.00000000E-01  8.00000000E-01
  1.50000000E+00  1.50000000E+00  8.00000000E-01  8.00000000E-01  1.50000000E+00
  1.50000000E+00  8.00000000E-01  8.00000000E-01  1.50000000E+00  1.50000000E+00
  8.00000000E-01  8.00000000E-01  1.50000000E+00  1.50000000E+00  8.00000000E-01
  8.00000000E-01  1.50000000E+00  1.50000000E+00  8.00000000E-01  8.00000000E-01
  1.50000000E+00  1.50000000E+00  8.00000000E-01  8.00000000E-01  1.50000000E+00
  1.50000000E+00  8.00000000E-01  8.00000000E-01  1.50000000E+00  1.50000000E+00
  8.00000000E-01  8.00000000E-01  1.50000000E+00  1.50000000E+00  8.00000000E-01
  8.00000000E-01  1.50000000E+00  1.50000000E+00  8.00000000E-01  8.00000000E-01
  1.50000000E+00  1.50000000E+00  8.00000000E-01  8.00000000E-01  1.50000000E+00
  1.50000000E+00  8.00000000E-01  8.00000000E-01  1.50000000E+00  1.50000000E+00
  8.00000000E-01  8.00000000E-01  1.50000000E+00  1.50000000E+00  8.00000000E-01
  8.00000000E-01  1.50000000E+00  1.50000000E+00  8.00000000E-01  8.00000000E-01
  1.50000000E+00  1.50000000E+00  8.00000000E-01  8.00000000E-01  1.50000000E+00
  1.50000000E+00  8.00000000E-01  8.00000000E-01  1.50000000E+00  1.50000000E+00
  8.00000000E-01  8.00000000E-01  1.50000000E+00  1.50000000E+00  8.00000000E-01
  8.00000000E-01  1.50000000E+00  1.50000000E+00  8.00000000E-01  8.00000000E-01
  1.50000000E+00  1.50000000E+00  8.00000000E-01  8.00000000E-01  1.50000000E+00
  1.50000000E+00  8.00000000E-01  8.00000000E-01  1.50000000E+00  1.50000000E+00
  8.00000000E-01  8.00000000E-01  1.50000000E+00  1.50000000E+00  8.00000000E-01
  8.00000000E-01  1.50000000E+00  1.50000000E+00  8.00000000E-01  8.00000000E-01
  1.50000000E+00  1.50000000E+00  8.00000000E-01  8.00000000E-01  1.50000000E+00
  1.50000000E+00  8.00000000E-01  8.00000000E-01  1.50000000E+00  1.50000000E+00
  8.00000000E-01  8.00000000E-01  1.50000000E+00  1.50000000E+00  8.00000000E-01
  8.00000000E-01  1.50000000E+00  1.50000000E+00  8.00000000E-01  8.00000000E-01
  1.50000000E+00  1.50000000E+00  8.00000000E-01  8.00000000E-01  1.50000000E+00
  1.50000000E+00  8.00000000E-01  8.00000000E-01  1.50000000E+00  1.50000000E+00
  8.00000000E-01  8.00000000E-01  1.50000000E+00  1.50000000E+00  8.00000000E-01
  8.00000000E-01  1.50000000E+00  1.50000000E+00  8.00000000E-01  8.00000000E-01
  1.50000000E+00  1.50000000E+00  8.00000000E-01  8.00000000E-01  1.50000000E+00
  1.50000000E+00  8.00000000E-01  8.00000000E-01  1.50000000E+00  1.50000000E+00
  8.00000000E-01  8.00000000E-01  1.50000000E+00  1.50000000E+00  8.00000000E-01
  8.00000000E-01  1.50000000E+00  1.50000000E+00  8.00000000E-01  8.00000000E-01
  1.50000000E+00  1.50000000E+00  8.00000000E-01  8.00000000E-01  1.50000000E+00
  1.50000000E+00  8.00000000E-01  8.00000000E-01  1.50000000E+00  1.50000000E+00
  8.00000000E-01  8.00000000E-01  1.50000000E+00  1.50000000E+00  8.00000000E-01
  8.00000000E-01  1.50000000E+00  1.50000000E+00  8.00000000E-01  8.00000000E-01
  1.50000000E+00  1.50000000E+00  8.00000000E-01  8.00000000E-01  1.50000000E+00
  1.50000000E+00  8.00000000E-01  8.00000000E-01  1.50000000E+00  1.50000000E+00
  8.00000000E-01  8.00000000E-01  1.50000000E+00  1.50000000E+00  8.00000000E-01
  8.00000000E-01  1.50000000E+00  1.50000000E+00  8.00000000E-01  8.00000000E-01
  1.50000000E+00  1.50000000E+00  8.00000000E-01  8.00000000E-01  1.50000000E+00
  1.50000000E+00  8.00000000E-01  8.00000000E-01  1.50000000E+00  1.50000000E+00
  8.00000000E-01  8.00000000E-01  1.50000000E+00  1.50000000E+00  8.00000000E-01
  8.00000000E-01  1.50000000E+00  1.50000000E+00  8.00000000E-01  8.00000000E-01
  1.50000000E+00  1.50000000E+00  8.00000000E-01  8.00000000E-01  1.50000000E+00
  1.50000000E+00  8.00000000E-01  8.00000000E-01  1.50000000E+00  1.50000000E+00
  8.00000000E-01  8.00000000E-01  1.50000000E+00  1.50000000E+00  8.00000000E-01
  8.00000000E-01  1.50000000E+00  1.50000000E+00  8.00000000E-01  8.00000000E-01
  1.50000000E+00  1.50000000E+00  8.00000000E-01  8.00000000E-01  1.50000000E+00
  1.50000000E+00  8.00000000E-01  8.00000000E-01  1.50000000E+00  1.50000000E+00
  8.00000000E-01  8.00000000E-01  1.50000000E+00  1.50000000E+00  8.00000000E-01
  8.00000000E-01  1.50000000E+00  1.50000000E+00  8.00000000E-01  8.00000000E-01
  1.50000000E+00  1.50000000E+00  8.00000000E-01  8.00000000E-01  1.50000000E+00
  1.50000000E+00  8.00000000E-01  8.00000000E-01  1.50000000E+00  1.50000000E+00
  8.00000000E-01  8.00000000E-01  1.50000000E+00  1.50000000E+00  8.00000000E-01
  8.00000000E-01  1.50000000E+00  1.50000000E+00  8.00000000E-01  8.00000000E-01
  1.50000000E+00  1.50000000E+00  8.00000000E-01  8.00000000E-01  1.50000000E+00
  1.50000000E+00  8.00000000E-01  8.00000000E-01  1.50000000E+00  1.50000000E+00
  8.00000000E-01  8.00000000E-01  1.50000000E+00  1.50000000E+00  8.00000000E-01
  8.00000000E-01  1.50000000E+00  1.50000000E+00  8.00000000E-01  8.00000000E-01
  1.50000000E+00  1.50000000E+00  8.00000000E-01  8.00000000E-01  1.50000000E+00
  1.50000000E+00  8.00000000E-01  8.00000000E-01  1.50000000E+00  1.50000000E+00
  8.00000000E-01  8.00000000E-01  1.50000000E+00  1.50000000E+00  8.00000000E-01
  8.00000000E-01  1.50000000E+00  1.50000000E+00  8.00000000E-01  8.00000000E-01
  1.50000000E+00  1.50000000E+00  8.00000000E-01  8.00000000E-01  1.50000000E+00
  1.50000000E+00  8.00000000E-01  8.00000000E-01  1.50000000E+00  1.50000000E+00
  8.00000000E-01  8.00000000E-01  1.50000000E+00  1.50000000E+00  8.00000000E-01
  8.00000000E-01  1.50000000E+00  1.50000000E+00  8.00000000E-01  8.00000000E-01
  1.50000000E+00  1.50000000E+00  8.00000000E-01  8.00000000E-01  1.50000000E+00
  1.50000000E+00  8.00000000E-01  8.00000000E-01  1.50000000E+00  1.50000000E+00
  8.00000000E-01  8.00000000E-01  1.50000000E+00  1.50000000E+00  8.00000000E-01
  8.00000000E-01  1.50000000E+00  1.50000000E+00  8.00000000E-01  8.00000000E-01
  1.50000000E+00  1.50000000E+00  8.00000000E-01  8.00000000E-01  1.50000000E+00
  1.50000000E+00  8.00000000E-01  8.00000000E-01  1.50000000E+00  1.50000000E+00
  8.00000000E-01  8.00000000E-01  1.50000000E+00  1.50000000E+00  8.00000000E-01
  8.00000000E-01  1.50000000E+00  1.50000000E+00  8.00000000E-01  8.00000000E-01
  1.50000000E+00  1.50000000E+00  8.00000000E-01  8.00000000E-01  1.50000000E+00
  1.50000000E+00  8.00000000E-01  8.00000000E-01  1.50000000E+00  1.50000000E+00
  8.00000000E-01  8.00000000E-01  1.50000000E+00  1.50000000E+00  8.00000000E-01
  8.00000000E-01  1.50000000E+00  1.50000000E+00  8.00000000E-01  8.00000000E-01
  1.50000000E+00  1.50000000E+00  8.00000000E-01  8.00000000E-01  1.50000000E+00
  1.50000000E+00  8.00000000E-01  8.00000000E-01  1.50000000E+00  1.50000000E+00
  8.00000000E-01  8.00000000E-01  1.50000000E+00  1.50000000E+00  8.00000000E-01
  8.00000000E-01  1.50000000E+00  1.50000000E+00  8.00000000E-01  8.00000000E-01
  1.50000000E+00  1.50000000E+00  8.00000000E-01  8.00000000E-01  1.50000000E+00
  1.50000000E+00  8.00000000E-01  8.00000000E-01  1.50000000E+00  1.50000000E+00
  8.00000000E-01  8.00000000E-01  1.50000000E+00  1.50000000E+00  8.00000000E-01
  8.00000000E-01  1.50000000E+00  1.50000000E+00  8.00000000E-01  8.00000000E-01
  1.50000000E+00  1.50000000E+00  8.00000000E-01  8.00000000E-01  1.50000000E+00
  1.50000000E+00  8.00000000E-01  8.00000000E-01  1.50000000E+00  1.50000000E+00
  8.00000000E-01  8.00000000E-01  1.50000000E+00  1.50000000E+00  8.00000000E-01
  8.00000000E-01  1.50000000E+00  1.50000000E+00  8.00000000E-01  8.00000000E-01
  1.50000000E+00  1.50000000E+00  8.00000000E-01  8.00000000E-01  1.50000000E+00
  1.50000000E+00  8.00000000E-01  8.00000000E-01  1.50000000E+00  1.50000000E+00
  8.00000000E-01  8.00000000E-01  1.50000000E+00  1.50000000E+00  8.00000000E-01
  8.00000000E-01  1.50000000E+00  1.50000000E+00  8.00000000E-01  8.00000000E-01
  1.50000000E+00  1.50000000E+00  8.00000000E-01  8.00000000E-01  1.50000000E+00
  1.50000000E+00  8.00000000E-01  8.00000000E-01  1.50000000E+00  1.50000000E+00
  8.00000000E-01  8.00000000E-01  1.50000000E+00  1.50000000E+00  8.00000000E-01
  8.00000000E-01  1.50000000E+00  1.50000000E+00  8.00000000E-01  8.00000000E-01
  1.50000000E+00  1.50000000E+00  8.00000000E-01  8.00000000E-01  1.50000000E+00
  1.50000000E+00  8.00000000E-01  8.00000000E-01  1.50000000E+00  1.50000000E+00
  8.00000000E-01  8.00000000E-01  1.50000000E+00  1.50000000E+00  8.00000000E-01
  8.00000000E-01  1.50000000E+00  1.50000000E+00  8.00000000E-01  8.00000000E-01
  1.50000000E+00  1.50000000E+00  8.00000000E-01  8.00000000E-01  1.50000000E+00
  1.50000000E+00  8.00000000E-01  8.00000000E-01  1.50000000E+00  1.50000000E+00
  8.00000000E-01  8.00000000E-01  1.50000000E+00  1.50000000E+00  8.00000000E-01
  8.00000000E-01  1.50000000E+00  1.50000000E+00  8.00000000E-01  8.00000000E-01
  1.50000000E+00  1.50000000E+00  8.00000000E-01  8.00000000E-01  1.50000000E+00
  1.50000000E+00  8.00000000E-01  8.00000000E-01  1.50000000E+00  1.50000000E+00
  8.00000000E-01  8.00000000E-01  1.50000000E+00  1.50000000E+00  8.00000000E-01
  8.00000000E-01  1.50000000E+00  1.50000000E+00  8.00000000E-01  8.00000000E-01
  1.50000000E+00  1.50000000E+00  8.00000000E-01  8.00000000E-01  1.50000000E+00
  1.50000000E+00  8.00000000E-01  8.00000000E-01  1.50000000E+00  1.50000000E+00
  8.00000000E-01  8.00000000E-01  1.50000000E+00  1.50000000E+00  8.00000000E-01
  8.00000000E-01  1.50000000E+00  1.50000000E+00  8.00000000E-01  8.00000000E-01
  1.50000000E+00  1.50000000E+00  8.00000000E-01  8.00000000E-01  1.50000000E+00
  1.50000000E+00  8.00000000E-01  8.00000000E-01  1.50000000E+00  1.50000000E+00
  8.00000000E-01  8.00000000E-01  1.50000000E+00  1.50000000E+00  8.00000000E-01
  8.00000000E-01  1.50000000E+00  1.50000000E+00  8.00000000E-01  8.00000000E-01
  1.50000000E+00  1.50000000E+00  8.00000000E-01  8.00000000E-01  1.50000000E+00
  1.50000000E+00  8.00000000E-01  8.00000000E-01  1.50000000E+00  1.50000000E+00
  8.00000000E-01  8.00000000E-01  1.50000000E+00  1.50000000E+00  8.00000000E-01
  8.00000000E-01  1.50000000E+00  1.50000000E+00  8.00000000E-01  8.00000000E-01
  1.50000000E+00  1.50000000E+00  8.00000000E-01  8.00000000E-01  1.50000000E+00
  1.50000000E+00  8.00000000E-01  8.00000000E-01  1.50000000E+00  1.50000000E+00
  8.00000000E-01  8.00000000E-01  1.50000000E+00  1.50000000E+00  8.00000000E-01
  8.00000000E-01  1.50000000E+00  1.50000000E+00  8.00000000E-01  8.00000000E-01
  1.50000000E+00  1.50000000E+00  8.00000000E-01  8.00000000E-01  1.50000000E+00
  1.50000000E+00  8.00000000E-01  8.00000000E-01  1.50000000E+00  1.50000000E+00
  8.00000000E-01  8.00000000E-01  1.50000000E+00  1.50000000E+00  8.00000000E-01
  8.00000000E-01  1.50000000E+00  1.50000000E+00  8.00000000E-01  8.00000000E-01
  1.50000000E+00  1.50000000E+00  8.00000000E-01  8.00000000E-01  1.50000000E+00
  1.50000000E+00  8.00000000E-01  8.00000000E-01  1.50000000E+00  1.50000000E+00
  8.00000000E-01  8.00000000E-01  1.50000000E+00  1.50000000E+00  8.00000000E-01
  8.00000000E-01  1.50000000E+00  1.50000000E+00  8.00000000E-01  8.00000000E-01
  1.50000000E+00  1.50000000E+00  8.00000000E-01  8.00000000E-01  1.50000000E+00
  1.50000000E+00  8.00000000E-01  8.00000000E-01  1.50000000E+00  1.50000000E+00
  8.00000000E-01  8.00000000E-01  1.50000000E+00  1.50000000E+00  8.00000000E-01
  8.00000000E-01  1.50000000E+00  1.50000000E+00  8.00000000E-01  8.00000000E-01
  1.50000000E+00  1.50000000E+00  8.00000000E-01  8.00000000E-01  1.50000000E+00
  1.50000000E+00  8.00000000E-01  8.00000000E-01  1.50000000E+00  1.50000000E+00
  8.00000000E-01  8.00000000E-01  1.50000000E+00  1.50000000E+00  8.00000000E-01
  8.00000000E-01  1.50000000E+00  1.50000000E+00  8.00000000E-01  8.00000000E-01
  1.50000000E+00  1.50000000E+00  8.00000000E-01  8.00000000E-01  1.50000000E+00
  1.50000000E+00  8.00000000E-01  8.00000000E-01  1.50000000E+00  1.50000000E+00
  8.00000000E-01  8.00000000E-01  1.50000000E+00  1.50000000E+00  8.00000000E-01
  8.00000000E-01  1.50000000E+00  1.50000000E+00  8.00000000E-01  8.00000000E-01
  1.50000000E+00  1.50000000E+00  8.00000000E-01  8.00000000E-01  1.50000000E+00
  1.50000000E+00  8.00000000E-01  8.00000000E-01  1.50000000E+00  1.50000000E+00
  8.00000000E-01  8.00000000E-01  1.50000000E+00  1.50000000E+00  8.00000000E-01
  8.00000000E-01  1.50000000E+00  1.50000000E+00  8.00000000E-01  8.00000000E-01
  1.50000000E+00  1.50000000E+00  8.00000000E-01  8.00000000E-01  1.50000000E+00
  1.50000000E+00  8.00000000E-01  8.00000000E-01  1.50000000E+00  1.50000000E+00
  8.00000000E-01  8.00000000E-01  1.50000000E+00  1.50000000E+00  8.00000000E-01
  8.00000000E-01  1.50000000E+00  1.50000000E+00  8.00000000E-01  8.00000000E-01
  1.50000000E+00  1.50000000E+00  8.00000000E-01  8.00000000E-01  1.50000000E+00
  1.50000000E+00  8.00000000E-01  8.00000000E-01  1.50000000E+00  1.50000000E+00
  8.00000000E-01  8.00000000E-01  1.50000000E+00  1.50000000E+00  8.00000000E-01
  8.00000000E-01  1.50000000E+00  1.50000000E+00  8.00000000E-01  8.00000000E-01
  1.50000000E+00  1.50000000E+00  8.00000000E-01  8.00000000E-01  1.50000000E+00
  1.50000000E+00  8.00000000E-01  8.00000000E-01  1.50000000E+00  1.50000000E+00
  8.00000000E-01  8.00000000E-01  1.50000000E+00  1.50000000E+00  8.00000000E-01
  8.00000000E-01  1.50000000E+00  1.50000000E+00  8.00000000E-01  8.00000000E-01
  1.50000000E+00  1.50000000E+00  8.00000000E-01  8.00000000E-01  1.50000000E+00
  1.50000000E+00  8.00000000E-01  8.00000000E-01  1.50000000E+00  1.50000000E+00
  8.00000000E-01  8.00000000E-01  1.50000000E+00  1.50000000E+00  8.00000000E-01
  8.00000000E-01  1.50000000E+00  1.50000000E+00  8.00000000E-01  8.00000000E-01
  1.50000000E+00  1.50000000E+00  8.00000000E-01  8.00000000E-01  1.50000000E+00
  1.50000000E+00  8.00000000E-01  8.00000000E-01  1.50000000E+00  1.50000000E+00
  8.00000000E-01  8.00000000E-01  1.50000000E+00  1.50000000E+00  8.00000000E-01
  8.00000000E-01  1.50000000E+00  1.50000000E+00  8.00000000E-01  8.00000000E-01
  1.50000000E+00  1.50000000E+00  8.00000000E-01  8.00000000E-01  1.50000000E+00
  1.50000000E+00  8.00000000E-01  8.00000000E-01  1.50000000E+00  1.50000000E+00
  8.00000000E-01  8.00000000E-01  1.50000000E+00  1.50000000E+00  8.00000000E-01
  8.00000000E-01  1.50000000E+00  1.50000000E+00  8.00000000E-01  8.00000000E-01
  1.50000000E+00  1.50000000E+00  8.00000000E-01  8.00000000E-01  1.50000000E+00
  1.50000000E+00  8.00000000E-01  8.00000000E-01  1.50000000E+00  1.50000000E+00
  8.00000000E-01  8.00000000E-01  1.50000000E+00  1.50000000E+00  8.00000000E-01
  8.00000000E-01  1.50000000E+00  1.50000000E+00  8.00000000E-01  8.00000000E-01
  1.50000000E+00  1.50000000E+00  8.00000000E-01  8.00000000E-01  1.50000000E+00
  1.50000000E+00  8.00000000E-01  8.00000000E-01  1.50000000E+00  1.50000000E+00
  8.00000000E-01  8.00000000E-01  1.50000000E+00  1.50000000E+00  8.00000000E-01
  8.00000000E-01  1.50000000E+00  1.50000000E+00  8.00000000E-01  8.00000000E-01
  1.50000000E+00  1.50000000E+00  8.00000000E-01  8.00000000E-01  1.50000000E+00
  1.50000000E+00  8.00000000E-01  8.00000000E-01  1.50000000E+00  1.50000000E+00
  8.00000000E-01  8.00000000E-01  1.50000000E+00  1.50000000E+00  8.00000000E-01
  8.00000000E-01  1.50000000E+00  1.50000000E+00  8.00000000E-01  8.00000000E-01
  1.50000000E+00  1.50000000E+00  8.00000000E-01  8.00000000E-01  1.50000000E+00
  1.50000000E+00  8.00000000E-01  8.00000000E-01  1.50000000E+00  1.50000000E+00
  8.00000000E-01  8.00000000E-01  1.50000000E+00  1.50000000E+00  8.00000000E-01
  8.00000000E-01  1.50000000E+00  1.50000000E+00  8.00000000E-01  8.00000000E-01
  1.50000000E+00  1.50000000E+00  8.00000000E-01  8.00000000E-01  1.50000000E+00
  1.50000000E+00  8.00000000E-01  8.00000000E-01  1.50000000E+00  1.50000000E+00
  8.00000000E-01  8.00000000E-01  1.50000000E+00  1.50000000E+00  8.00000000E-01
  8.00000000E-01  1.50000000E+00  1.50000000E+00  8.00000000E-01  8.00000000E-01
  1.50000000E+00  1.50000000E+00  8.00000000E-01  8.00000000E-01  1.50000000E+00
  1.50000000E+00  8.00000000E-01  8.00000000E-01  1.50000000E+00  1.50000000E+00
  8.00000000E-01  8.00000000E-01  1.50000000E+00  1.50000000E+00  8.00000000E-01
  8.00000000E-01  1.50000000E+00  1.50000000E+00  8.00000000E-01  8.00000000E-01
  1.50000000E+00  1.50000000E+00  8.00000000E-01  8.00000000E-01  1.50000000E+00
  1.50000000E+00  8.00000000E-01  8.00000000E-01  1.50000000E+00  1.50000000E+00
  8.00000000E-01  8.00000000E-01  1.50000000E+00  1.50000000E+00  8.00000000E-01
  8.00000000E-01  1.50000000E+00  1.50000000E+00  8.00000000E-01  8.00000000E-01
  1.50000000E+00  1.50000000E+00  8.00000000E-01  8.00000000E-01  1.50000000E+00
  1.50000000E+00  8.00000000E-01  8.00000000E-01  1.50000000E+00  1.50000000E+00
  8.00000000E-01  8.00000000E-01  1.50000000E+00  1.50000000E+00  8.00000000E-01
  8.00000000E-01  1.50000000E+00  1.50000000E+00  8.00000000E-01  8.00000000E-01
  1.50000000E+00  1.50000000E+00  8.00000000E-01  8.00000000E-01  1.50000000E+00
  1.50000000E+00  8.00000000E-01  8.00000000E-01  1.50000000E+00  1.50000000E+00
  8.00000000E-01  8.00000000E-01  1.50000000E+00  1.50000000E+00  8.00000000E-01
  8.00000000E-01  1.50000000E+00  1.50000000E+00  8.00000000E-01  8.00000000E-01
  1.50000000E+00  1.50000000E+00  8.00000000E-01  8.00000000E-01  1.50000000E+00
  1.50000000E+00  8.00000000E-01  8.00000000E-01  1.50000000E+00  1.50000000E+00
  8.00000000E-01  8.00000000E-01  1.50000000E+00  1.50000000E+00  8.00000000E-01
  8.00000000E-01  1.50000000E+00  1.50000000E+00  8.00000000E-01  8.00000000E-01
  1.50000000E+00  1.50000000E+00  8.00000000E-01  8.00000000E-01  1.50000000E+00
  1.50000000E+00  8.00000000E-01  8.00000000E-01  1.50000000E+00  1.50000000E+00
  8.00000000E-01  8.00000000E-01  1.50000000E+00  1.50000000E+00  8.00000000E-01
  8.00000000E-01  1.50000000E+00  1.50000000E+00  8.00000000E-01  8.00000000E-01
  1.50000000E+00  1.50000000E+00  8.00000000E-01  8.00000000E-01  1.50000000E+00
  1.50000000E+00  8.00000000E-01  8.00000000E-01  1.50000000E+00  1.50000000E+00
  8.00000000E-01  8.00000000E-01  1.50000000E+00  1.50000000E+00  8.00000000E-01
  8.00000000E-01  1.50000000E+00  1.50000000E+00  8.00000000E-01  8.00000000E-01
  1.50000000E+00  1.50000000E+00  8.00000000E-01  8.00000000E-01  1.50000000E+00
  1.50000000E+00  8.00000000E-01  8.00000000E-01  1.50000000E+00  1.50000000E+00
  8.00000000E-01  8.00000000E-01  1.50000000E+00  1.50000000E+00  8.00000000E-01
  8.00000000E-01  1.50000000E+00
%FLAG SCREEN                                                                    
%FORMAT(5E16.8)                                                                 
  8.00000000E-01  8.00000000E-01  8.00000000E-01  8.00000000E-01  8.00000000E-01
  8.00000000E-01  8.00000000E-01  8.00000000E-01  8.00000000E-01  8.00000000E-01
  8.50000000E-01  7.20000000E-01  7.90000000E-01  7.20000000E-01  7.90000000E-01
  7.90000000E-01  7.20000000E-01  7.20000000E-01  7.20000000E-01  7.20000000E-01
  7.20000000E-01  7.20000000E-01  7.90000000E-01  7.20000000E-01  7.20000000E-01
  7.90000000E-01  7.20000000E-01  7.90000000E-01  8.50000000E-01  8.50000000E-01
  8.50000000E-01  8.50000000E-01  8.50000000E-01  8.50000000E-01  8.50000000E-01
  8.50000000E-01  8.50000000E-01  8.50000000E-01  8.50000000E-01  8.50000000E-01
  8.50000000E-01  8.00000000E-01  8.50000000E-01  8.50000000E-01  8.50000000E-01
  8.00000000E-01  8.50000000E-01  8.50000000E-01  8.50000000E-01  8.00000000E-01
  8.50000000E-01  8.50000000E-01  8.50000000E-01  8.00000000E-01  8.50000000E-01
  8.50000000E-01  8.50000000E-01  8.00000000E-01  8.50000000E-01  8.50000000E-01
  8.50000000E-01  8.00000000E-01  8.50000000E-01  8.50000000E-01  8.50000000E-01
  8.00000000E-01  8.50000000E-01  8.50000000E-01  8.50000000E-01  8.00000000E-01
  8.50000000E-01  8.50000000E-01  8.50000000E-01  8.00000000E-01  8.50000000E-01
  8.50000000E-01  8.50000000E-01  8.00000000E-01  8.50000000E-01  8.50000000E-01
  8.50000000E-01  8.00000000E-01  8.50000000E-01  8.50000000E-01  8.50000000E-01
  8.00000000E-01  8.50000000E-01  8.50000000E-01  8.50000000E-01  8.00000000E-01
  8.50000000E-01  8.50000000E-01  8.50000000E-01  8.00000000E-01  8.50000000E-01
  8.50000000E-01  8.50000000E-01  8.00000000E-01  8.50000000E-01  8.50000000E-01
  8.50000000E-01  8.00000000E-01  8.50000000E-01  8.50000000E-01  8.50000000E-01
  8.00000000E-01  8.50000000E-01  8.50000000E-01  8.50000000E-01  8.00000000E-01
  8.50000000E-01  8.50000000E-01  8.50000000E-01  8.00000000E-01  8.50000000E-01
  8.50000000E-01  8.50000000E-01  8.00000000E-01  8.50000000E-01  8.50000000E-01
  8.50000000E-01  8.00000000E-01  8.50000000E-01  8.50000000E-01  8.50000000E-01
  8.00000000E-01  8.50000000E-01  8.50000000E-01  8.50000000E-01  8.00000000E-01
  8.50000000E-01  8.50000000E-01  8.50000000E-01  8.00000000E-01  8.50000000E-01
  8.50000000E-01  8.50000000E-01  8.00000000E-01  8.50000000E-01  8.50000000E-01
  8.50000000E-01  8.00000000E-01  8.50000000E-01  8.50000000E-01  8.50000000E-01
  8.00000000E-01  8.50000000E-01  8.50000000E-01  8.50000000E-01  8.00000000E-01
  8.50000000E-01  8.50000000E-01  8.50000000E-01  8.00000000E-01  8.50000000E-01
  8.50000000E-01  8.50000000E-01  8.00000000E-01  8.50000000E-01  8.50000000E-01
  8.50000000E-01  8.00000000E-01  8.50000000E-01  8.50000000E-01  8.50000000E-01
  8.00000000E-01  8.50000000E-01  8.50000000E-01  8.50000000E-01  8.00000000E-01
  8.50000000E-01  8.50000000E-01  8.50000000E-01  8.00000000E-01  8.50000000E-01
  8.50000000E-01  8.50000000E-01  8.00000000E-01  8.50000000E-01  8.50000000E-01
  8.50000000E-01  8.00000000E-01  8.50000000E-01  8.50000000E-01  8.50000000E-01
  8.00000000E-01  8.50000000E-01  8.50000000E-01  8.50000000E-01  8.00000000E-01
  8.50000000E-01  8.50000000E-01  8.50000000E-01  8.00000000E-01  8.50000000E-01
  8.50000000E-01  8.50000000E-01  8.00000000E-01  8.50000000E-01  8.50000000E-01
  8.50000000E-01  8.00000000E-01  8.50000000E-01  8.50000000E-01  8.50000000E-01
  8.00000000E-01  8.50000000E-01  8.50000000E-01  8.50000000E-01  8.00000000E-01
  8.50000000E-01  8.50000000E-01  8.50000000E-01  8.00000000E-01  8.50000000E-01
  8.50000000E-01  8.50000000E-01  8.00000000E-01  8.50000000E-01  8.50000000E-01
  8.50000000E-01  8.00000000E-01  8.50000000E-01  8.50000000E-01  8.50000000E-01
  8.00000000E-01  8.50000000E-01  8.50000000E-01  8.50000000E-01  8.00000000E-01
  8.50000000E-01  8.50000000E-01  8.50000000E-01  8.00000000E-01  8.50000000E-01
  8.50000000E-01  8.50000000E-01  8.00000000E-01  8.50000000E-01  8.50000000E-01
  8.50000000E-01  8.00000000E-01  8.50000000E-01  8.50000000E-01  8.50000000E-01
  8.00000000E-01  8.50000000E-01  8.50000000E-01  8.50000000E-01  8.00000000E-01
  8.50000000E-01  8.50000000E-01  8.50000000E-01  8.00000000E-01  8.50000000E-01
  8.50000000E-01  8.50000000E-01  8.00000000E-01  8.50000000E-01  8.50000000E-01
  8.50000000E-01  8.00000000E-01  8.50000000E-01  8.50000000E-01  8.50000000E-01
  8.00000000E-01  8.50000000E-01  8.50000000E-01  8.50000000E-01  8.00000000E-01
  8.50000000E-01  8.50000000E-01  8.50000000E-01  8.00000000E-01  8.50000000E-01
  8.50000000E-01  8.50000000E-01  8.00000000E-01  8.50000000E-01  8.50000000E-01
  8.50000000E-01  8.00000000E-01  8.50000000E-01  8.50000000E-01  8.50000000E-01
  8.00000000E-01  8.50000000E-01  8.50000000E-01  8.50000000E-01  8.00000000E-01
  8.50000000E-01  8.50000000E-01  8.50000000E-01  8.00000000E-01  8.50000000E-01
  8.50000000E-01  8.50000000E-01  8.00000000E-01  8.50000000E-01  8.50000000E-01
  8.50000000E-01  8.00000000E-01  8.50000000E-01  8.50000000E-01  8.50000000E-01
  8.00000000E-01  8.50000000E-01  8.50000000E-01  8.50000000E-01  8.00000000E-01
  8.50000000E-01  8.50000000E-01  8.50000000E-01  8.00000000E-01  8.50000000E-01
  8.50000000E-01  8.50000000E-01  8.00000000E-01  8.50000000E-01  8.50000000E-01
  8.50000000E-01  8.00000000E-01  8.50000000E-01  8.50000000E-01  8.50000000E-01
  8.00000000E-01  8.50000000E-01  8.50000000E-01  8.50000000E-01  8.00000000E-01
  8.50000000E-01  8.50000000E-01  8.50000000E-01  8.00000000E-01  8.50000000E-01
  8.50000000E-01  8.50000000E-01  8.00000000E-01  8.50000000E-01  8.50000000E-01
  8.50000000E-01  8.00000000E-01  8.50000000E-01  8.50000000E-01  8.50000000E-01
  8.00000000E-01  8.50000000E-01  8.50000000E-01  8.50000000E-01  8.00000000E-01
  8.50000000E-01  8.50000000E-01  8.50000000E-01  8.00000000E-01  8.50000000E-01
  8.50000000E-01  8.50000000E-01  8.00000000E-01  8.50000000E-01  8.50000000E-01
  8.50000000E-01  8.00000000E-01  8.50000000E-01  8.50000000E-01  8.50000000E-01
  8.00000000E-01  8.50000000E-01  8.50000000E-01  8.50000000E-01  8.00000000E-01
  8.50000000E-01  8.50000000E-01  8.50000000E-01  8.00000000E-01  8.50000000E-01
  8.50000000E-01  8.50000000E-01  8.00000000E-01  8.50000000E-01  8.50000000E-01
  8.50000000E-01  8.00000000E-01  8.50000000E-01  8.50000000E-01  8.50000000E-01
  8.00000000E-01  8.50000000E-01  8.50000000E-01  8.50000000E-01  8.00000000E-01
  8.50000000E-01  8.50000000E-01  8.50000000E-01  8.00000000E-01  8.50000000E-01
  8.50000000E-01  8.50000000E-01  8.00000000E-01  8.50000000E-01  8.50000000E-01
  8.50000000E-01  8.00000000E-01  8.50000000E-01  8.50000000E-01  8.50000000E-01
  8.00000000E-01  8.50000000E-01  8.50000000E-01  8.50000000E-01  8.00000000E-01
  8.50000000E-01  8.50000000E-01  8.50000000E-01  8.00000000E-01  8.50000000E-01
  8.50000000E-01  8.50000000E-01  8.00000000E-01  8.50000000E-01  8.50000000E-01
  8.50000000E-01  8.00000000E-01  8.50000000E-01  8.50000000E-01  8.50000000E-01
  8.00000000E-01  8.50000000E-01  8.50000000E-01  8.50000000E-01  8.00000000E-01
  8.50000000E-01  8.50000000E-01  8.50000000E-01  8.00000000E-01  8.50000000E-01
  8.50000000E-01  8.50000000E-01  8.00000000E-01  8.50000000E-01  8.50000000E-01
  8.50000000E-01  8.00000000E-01  8.50000000E-01  8.50000000E-01  8.50000000E-01
  8.00000000E-01  8.50000000E-01  8.50000000E-01  8.50000000E-01  8.00000000E-01
  8.50000000E-01  8.50000000E-01  8.50000000E-01  8.00000000E-01  8.50000000E-01
  8.50000000E-01  8.50000000E-01  8.00000000E-01  8.50000000E-01  8.50000000E-01
  8.50000000E-01  8.00000000E-01  8.50000000E-01  8.50000000E-01  8.50000000E-01
  8.00000000E-01  8.50000000E-01  8.50000000E-01  8.50000000E-01  8.00000000E-01
  8.50000000E-01  8.50000000E-01  8.50000000E-01  8.00000000E-01  8.50000000E-01
  8.50000000E-01  8.50000000E-01  8.00000000E-01  8.50000000E-01  8.50000000E-01
  8.50000000E-01  8.00000000E-01  8.50000000E-01  8.50000000E-01  8.50000000E-01
  8.00000000E-01  8.50000000E-01  8.50000000E-01  8.50000000E-01  8.00000000E-01
  8.50000000E-01  8.50000000E-01  8.50000000E-01  8.00000000E-01  8.50000000E-01
  8.50000000E-01  8.50000000E-01  8.00000000E-01  8.50000000E-01  8.50000000E-01
  8.50000000E-01  8.00000000E-01  8.50000000E-01  8.50000000E-01  8.50000000E-01
  8.00000000E-01  8.50000000E-01  8.50000000E-01  8.50000000E-01  8.00000000E-01
  8.50000000E-01  8.50000000E-01  8.50000000E-01  8.00000000E-01  8.50000000E-01
  8.50000000E-01  8.50000000E-01  8.00000000E-01  8.50000000E-01  8.50000000E-01
  8.50000000E-01  8.00000000E-01  8.50000000E-01  8.50000000E-01  8.50000000E-01
  8.00000000E-01  8.50000000E-01  8.50000000E-01  8.50000000E-01  8.00000000E-01
  8.50000000E-01  8.50000000E-01  8.50000000E-01  8.00000000E-01  8.50000000E-01
  8.50000000E-01  8.50000000E-01  8.00000000E-01  8.50000000E-01  8.50000000E-01
  8.50000000E-01  8.00000000E-01  8.50000000E-01  8.50000000E-01  8.50000000E-01
  8.00000000E-01  8.50000000E-01  8.50000000E-01  8.50000000E-01  8.00000000E-01
  8.50000000E-01  8.50000000E-01  8.50000000E-01  8.00000000E-01  8.50000000E-01
  8.50000000E-01  8.50000000E-01  8.00000000E-01  8.50000000E-01  8.50000000E-01
  8.50000000E-01  8.00000000E-01  8.50000000E-01  8.50000000E-01  8.50000000E-01
  8.00000000E-01  8.50000000E-01  8.50000000E-01  8.50000000E-01  8.00000000E-01
  8.50000000E-01  8.50000000E-01  8.50000000E-01  8.00000000E-01  8.50000000E-01
  8.50000000E-01  8.50000000E-01  8.00000000E-01  8.50000000E-01  8.50000000E-01
  8.50000000E-01  8.00000000E-01  8.50000000E-01  8.50000000E-01  8.50000000E-01
  8.00000000E-01  8.50000000E-01  8.50000000E-01  8.50000000E-01  8.00000000E-01
  8.50000000E-01  8.50000000E-01  8.50000000E-01  8.00000000E-01  8.50000000E-01
  8.50000000E-01  8.50000000E-01  8.00000000E-01  8.50000000E-01  8.50000000E-01
  8.50000000E-01  8.00000000E-01  8.50000000E-01  8.50000000E-01  8.50000000E-01
  8.00000000E-01  8.50000000E-01  8.50000000E-01  8.50000000E-01  8.00000000E-01
  8.50000000E-01  8.50000000E-01  8.50000000E-01  8.00000000E-01  8.50000000E-01
  8.50000000E-01  8.50000000E-01  8.00000000E-01  8.50000000E-01  8.50000000E-01
  8.50000000E-01  8.00000000E-01  8.50000000E-01  8.50000000E-01  8.50000000E-01
  8.00000000E-01  8.50000000E-01  8.50000000E-01  8.50000000E-01  8.00000000E-01
  8.50000000E-01  8.50000000E-01  8.50000000E-01  8.00000000E-01  8.50000000E-01
  8.50000000E-01  8.50000000E-01  8.00000000E-01  8.50000000E-01  8.50000000E-01
  8.50000000E-01  8.00000000E-01  8.50000000E-01  8.50000000E-01  8.50000000E-01
  8.00000000E-01  8.50000000E-01  8.50000000E-01  8.50000000E-01  8.00000000E-01
  8.50000000E-01  8.50000000E-01  8.50000000E-01  8.00000000E-01  8.50000000E-01
  8.50000000E-01  8.50000000E-01  8.00000000E-01  8.50000000E-01  8.50000000E-01
  8.50000000E-01  8.00000000E-01  8.50000000E-01  8.50000000E-01  8.50000000E-01
  8.00000000E-01  8.50000000E-01  8.50000000E-01  8.50000000E-01  8.00000000E-01
  8.50000000E-01  8.50000000E-01  8.50000000E-01  8.00000000E-01  8.50000000E-01
  8.50000000E-01  8.50000000E-01  8.00000000E-01  8.50000000E-01  8.50000000E-01
  8.50000000E-01  8.00000000E-01  8.50000000E-01  8.50000000E-01  8.50000000E-01
  8.00000000E-01  8.50000000E-01  8.50000000E-01  8.50000000E-01  8.00000000E-01
  8.50000000E-01  8.50000000E-01  8.50000000E-01  8.00000000E-01  8.50000000E-01
  8.50000000E-01  8.50000000E-01  8.00000000E-01  8.50000000E-01  8.50000000E-01
  8.50000000E-01  8.00000000E-01  8.50000000E-01  8.50000000E-01  8.50000000E-01
  8.00000000E-01  8.50000000E-01  8.50000000E-01  8.50000000E-01  8.00000000E-01
  8.50000000E-01  8.50000000E-01  8.50000000E-01  8.00000000E-01  8.50000000E-01
  8.50000000E-01  8.50000000E-01  8.00000000E-01  8.50000000E-01  8.50000000E-01
  8.50000000E-01  8.00000000E-01  8.50000000E-01  8.50000000E-01  8.50000000E-01
  8.00000000E-01  8.50000000E-01  8.50000000E-01  8.50000000E-01  8.00000000E-01
  8.50000000E-01  8.50000000E-01  8.50000000E-01  8.00000000E-01  8.50000000E-01
  8.50000000E-01  8.50000000E-01  8.00000000E-01  8.50000000E-01  8.50000000E-01
  8.50000000E-01  8.00000000E-01  8.50000000E-01  8.50000000E-01  8.50000000E-01
  8.00000000E-01  8.50000000E-01  8.50000000E-01  8.50000000E-01  8.00000000E-01
  8.50000000E-01  8.50000000E-01  8.50000000E-01  8.00000000E-01  8.50000000E-01
  8.50000000E-01  8.50000000E-01  8.00000000E-01  8.50000000E-01  8.50000000E-01
  8.50000000E-01  8.00000000E-01  8.50000000E-01  8.50000000E-01  8.50000000E-01
  8.00000000E-01  8.50000000E-01  8.50000000E-01  8.50000000E-01  8.00000000E-01
  8.50000000E-01  8.50000000E-01  8.50000000E-01  8.00000000E-01  8.50000000E-01
  8.50000000E-01  8.50000000E-01  8.00000000E-01  8.50000000E-01  8.50000000E-01
  8.50000000E-01  8.00000000E-01  8.50000000E-01  8.50000000E-01  8.50000000E-01
  8.00000000E-01  8.50000000E-01  8.50000000E-01  8.50000000E-01  8.00000000E-01
  8.50000000E-01  8.50000000E-01  8.50000000E-01  8.00000000E-01  8.50000000E-01
  8.50000000E-01  8.50000000E-01  8.00000000E-01  8.50000000E-01  8.50000000E-01
  8.50000000E-01  8.00000000E-01  8.50000000E-01  8.50000000E-01  8.50000000E-01
  8.00000000E-01  8.50000000E-01  8.50000000E-01  8.50000000E-01  8.00000000E-01
  8.50000000E-01  8.50000000E-01  8.50000000E-01  8.00000000E-01  8.50000000E-01
  8.50000000E-01  8.50000000E-01  8.00000000E-01  8.50000000E-01  8.50000000E-01
  8.50000000E-01  8.00000000E-01  8.50000000E-01  8.50000000E-01  8.50000000E-01
  8.00000000E-01  8.50000000E-01  8.50000000E-01  8.50000000E-01  8.00000000E-01
  8.50000000E-01  8.50000000E-01  8.50000000E-01  8.00000000E-01  8.50000000E-01
  8.50000000E-01  8.50000000E-01  8.00000000E-01  8.50000000E-01  8.50000000E-01
  8.50000000E-01  8.00000000E-01  8.50000000E-01  8.50000000E-01  8.50000000E-01
  8.00000000E-01  8.50000000E-01  8.50000000E-01  8.50000000E-01  8.00000000E-01
  8.50000000E-01  8.50000000E-01  8.50000000E-01  8.00000000E-01  8.50000000E-01
  8.50000000E-01  8.50000000E-01  8.00000000E-01  8.50000000E-01  8.50000000E-01
  8.50000000E-01  8.00000000E-01  8.50000000E-01  8.50000000E-01  8.50000000E-01
  8.00000000E-01  8.50000000E-01  8.50000000E-01  8.50000000E-01  8.00000000E-01
  8.50000000E-01  8.50000000E-01  8.50000000E-01  8.00000000E-01  8.50000000E-01
  8.50000000E-01  8.50000000E-01  8.00000000E-01  8.50000000E-01  8.50000000E-01
  8.50000000E-01  8.00000000E-01  8.50000000E-01  8.50000000E-01  8.50000000E-01
  8.00000000E-01  8.50000000E-01  8.50000000E-01  8.50000000E-01  8.00000000E-01
  8.50000000E-01  8.50000000E-01  8.50000000E-01  8.00000000E-01  8.50000000E-01
  8.50000000E-01  8.50000000E-01  8.00000000E-01  8.50000000E-01  8.50000000E-01
  8.50000000E-01  8.00000000E-01  8.50000000E-01  8.50000000E-01  8.50000000E-01
  8.00000000E-01  8.50000000E-01  8.50000000E-01  8.50000000E-01  8.00000000E-01
  8.50000000E-01  8.50000000E-01  8.50000000E-01  8.00000000E-01  8.50000000E-01
  8.50000000E-01  8.50000000E-01  8.00000000E-01  8.50000000E-01  8.50000000E-01
  8.50000000E-01  8.00000000E-01  8.50000000E-01  8.50000000E-01  8.50000000E-01
  8.00000000E-01  8.50000000E-01  8.50000000E-01  8.50000000E-01  8.00000000E-01
  8.50000000E-01  8.50000000E-01  8.50000000E-01  8.00000000E-01  8.50000000E-01
  8.50000000E-01  8.50000000E-01  8.00000000E-01  8.50000000E-01  8.50000000E-01
  8.50000000E-01  8.00000000E-01  8.50000000E-01  8.50000000E-01  8.50000000E-01
  8.00000000E-01  8.50000000E-01  8.50000000E-01  8.50000000E-01  8.00000000E-01
  8.50000000E-01  8.50000000E-01  8.50000000E-01  8.00000000E-01  8.50000000E-01
  8.50000000E-01  8.50000000E-01  8.00000000E-01  8.50000000E-01  8.50000000E-01
  8.50000000E-01  8.00000000E-01  8.50000000E-01  8.50000000E-01  8.50000000E-01
  8.00000000E-01  8.50000000E-01  8.50000000E-01  8.50000000E-01  8.00000000E-01
  8.50000000E-01  8.50000000E-01  8.50000000E-01  8.00000000E-01  8.50000000E-01
  8.50000000E-01  8.50000000E-01  8.00000000E-01  8.50000000E-01  8.50000000E-01
  8.50000000E-01  8.00000000E-01  8.50000000E-01  8.50000000E-01  8.50000000E-01
  8.00000000E-01  8.50000000E-01  8.50000000E-01  8.50000000E-01  8.00000000E-01
  8.50000000E-01  8.50000000E-01  8.50000000E-01  8.00000000E-01  8.50000000E-01
  8.50000000E-01  8.50000000E-01  8.00000000E-01  8.50000000E-01  8.50000000E-01
  8.50000000E-01  8.00000000E-01  8.50000000E-01  8.50000000E-01  8.50000000E-01
  8.00000000E-01  8.50000000E-01  8.50000000E-01  8.50000000E-01  8.00000000E-01
  8.50000000E-01  8.50000000E-01  8.50000000E-01  8.00000000E-01  8.50000000E-01
  8.50000000E-01  8.50000000E-01  8.00000000E-01  8.50000000E-01  8.50000000E-01
  8.50000000E-01  8.00000000E-01  8.50000000E-01  8.50000000E-01  8.50000000E-01
  8.00000000E-01  8.50000000E-01  8.50000000E-01  8.50000000E-01  8.00000000E-01
  8.50000000E-01  8.50000000E-01  8.50000000E-01  8.00000000E-01  8.50000000E-01
  8.50000000E-01  8.50000000E-01  8.00000000E-01  8.50000000E-01  8.50000000E-01
  8.50000000E-01  8.00000000E-01  8.50000000E-01  8.50000000E-01  8.50000000E-01
  8.00000000E-01  8.50000000E-01  8.50000000E-01  8.50000000E-01  8.00000000E-01
  8.50000000E-01  8.50000000E-01  8.50000000E-01  8.00000000E-01  8.50000000E-01
  8.50000000E-01  8.50000000E-01  8.00000000E-01  8.50000000E-01  8.50000000E-01
  8.50000000E-01  8.00000000E-01  8.50000000E-01  8.50000000E-01  8.50000000E-01
  8.00000000E-01  8.50000000E-01  8.50000000E-01  8.50000000E-01  8.00000000E-01
  8.50000000E-01  8.50000000E-01  8.50000000E-01  8.00000000E-01  8.50000000E-01
  8.50000000E-01  8.50000000E-01  8.00000000E-01  8.50000000E-01  8.50000000E-01
  8.50000000E-01  8.00000000E-01  8.50000000E-01  8.50000000E-01  8.50000000E-01
  8.00000000E-01  8.50000000E-01  8.50000000E-01  8.50000000E-01  8.00000000E-01
  8.50000000E-01  8.50000000E-01  8.50000000E-01  8.00000000E-01  8.50000000E-01
  8.50000000E-01  8.50000000E-01  8.00000000E-01  8.50000000E-01  8.50000000E-01
  8.50000000E-01  8.00000000E-01  8.50000000E-01  8.50000000E-01  8.50000000E-01
  8.00000000E-01  8.50000000E-01  8.50000000E-01  8.50000000E-01  8.00000000E-01
  8.50000000E-01  8.50000000E-01  8.50000000E-01  8.00000000E-01  8.50000000E-01
  8.50000000E-01  8.50000000E-01  8.00000000E-01  8.50000000E-01  8.50000000E-01
  8.50000000E-01  8.00000000E-01  8.50000000E-01  8.50000000E-01  8.50000000E-01
  8.00000000E-01  8.50000000E-01  8.50000000E-01  8.50000000E-01  8.00000000E-01
  8.50000000E-01  8.50000000E-01  8.50000000E-01  8.00000000E-01  8.50000000E-01
  8.50000000E-01  8.50000000E-01  8.00000000E-01  8.50000000E-01  8.50000000E-01
  8.50000000E-01  8.00000000E-01  8.50000000E-01  8.50000000E-01  8.50000000E-01
  8.00000000E-01  8.50000000E-01  8.50000000E-01  8.50000000E-01  8.00000000E-01
  8.50000000E-01  8.50000000E-01  8.50000000E-01  8.00000000E-01  8.50000000E-01
  8.50000000E-01  8.50000000E-01  8.00000000E-01  8.50000000E-01  8.50000000E-01
  8.50000000E-01  8.00000000E-01  8.50000000E-01  8.50000000E-01  8.50000000E-01
  8.00000000E-01  8.50000000E-01  8.50000000E-01  8.50000000E-01  8.00000000E-01
  8.50000000E-01  8.50000000E-01  8.50000000E-01  8.00000000E-01  8.50000000E-01
  8.50000000E-01  8.50000000E-01  8.00000000E-01  8.50000000E-01  8.50000000E-01
  8.50000000E-01  8.00000000E-01  8.50000000E-01  8.50000000E-01  8.50000000E-01
  8.00000000E-01  8.50000000E-01  8.50000000E-01  8.50000000E-01  8.00000000E-01
  8.50000000E-01  8.50000000E-01  8.50000000E-01  8.00000000E-01  8.50000000E-01
  8.50000000E-01  8.50000000E-01  8.00000000E-01  8.50000000E-01  8.50000000E-01
  8.50000000E-01  8.00000000E-01  8.50000000E-01  8.50000000E-01  8.50000000E-01
  8.00000000E-01  8.50000000E-01  8.50000000E-01  8.50000000E-01  8.00000000E-01
  8.50000000E-01  8.50000000E-01  8.50000000E-01  8.00000000E-01  8.50000000E-01
  8.50000000E-01  8.50000000E-01  8.00000000E-01  8.50000000E-01  8.50000000E-01
  8.50000000E-01  8.00000000E-01  8.50000000E-01  8.50000000E-01  8.50000000E-01
  8.00000000E-01  8.50000000E-01  8.50000000E-01  8.50000000E-01  8.00000000E-01
  8.50000000E-01  8.50000000E-01  8.50000000E-01  8.00000000E-01  8.50000000E-01
  8.50000000E-01  8.50000000E-01  8.00000000E-01  8.50000000E-01  8.50000000E-01
  8.50000000E-01  8.00000000E-01  8.50000000E-01  8.50000000E-01  8.50000000E-01
  8.00000000E-01  8.50000000E-01  8.50000000E-01  8.50000000E-01  8.00000000E-01
  8.50000000E-01  8.50000000E-01  8.50000000E-01  8.00000000E-01  8.50000000E-01
  8.50000000E-01  8.50000000E-01  8.00000000E-01  8.50000000E-01  8.50000000E-01
  8.50000000E-01  8.00000000E-01  8.50000000E-01  8.50000000E-01  8.50000000E-01
  8.00000000E-01  8.50000000E-01  8.50000000E-01  8.50000000E-01  8.00000000E-01
  8.50000000E-01  8.50000000E-01  8.50000000E-01  8.00000000E-01  8.50000000E-01
  8.50000000E-01  8.50000000E-01  8.00000000E-01  8.50000000E-01  8.50000000E-01
  8.50000000E-01  8.00000000E-01  8.50000000E-01  8.50000000E-01  8.50000000E-01
  8.00000000E-01  8.50000000E-01  8.50000000E-01  8.50000000E-01  8.00000000E-01
  8.50000000E-01  8.50000000E-01  8.50000000E-01  8.00000000E-01  8.50000000E-01
  8.50000000E-01  8.50000000E-01  8.00000000E-01  8.50000000E-01  8.50000000E-01
  8.50000000E-01  8.00000000E-01  8.50000000E-01  8.50000000E-01  8.50000000E-01
  8.00000000E-01  8.50000000E-01  8.50000000E-01  8.50000000E-01  8.00000000E-01
  8.50000000E-01  8.50000000E-01  8.50000000E-01  8.00000000E-01  8.50000000E-01
  8.50000000E-01  8.50000000E-01  8.00000000E-01  8.50000000E-01  8.50000000E-01
  8.50000000E-01  8.00000000E-01  8.50000000E-01  8.50000000E-01  8.50000000E-01
  8.00000000E-01  8.50000000E-01  8.50000000E-01  8.50000000E-01  8.00000000E-01
  8.50000000E-01  8.50000000E-01  8.50000000E-01  8.00000000E-01  8.50000000E-01
  8.50000000E-01  8.50000000E-01  8.00000000E-01  8.50000000E-01  8.50000000E-01
  8.50000000E-01  8.00000000E-01  8.50000000E-01  8.50000000E-01  8.50000000E-01
  8.00000000E-01  8.50000000E-01  8.50000000E-01  8.50000000E-01  8.00000000E-01
  8.50000000E-01  8.50000000E-01  8.50000000E-01  8.00000000E-01  8.50000000E-01
  8.50000000E-01  8.50000000E-01  8.00000000E-01  8.50000000E-01  8.50000000E-01
  8.50000000E-01  8.00000000E-01  8.50000000E-01  8.50000000E-01  8.50000000E-01
  8.00000000E-01  8.50000000E-01  8.50000000E-01  8.50000000E-01  8.00000000E-01
  8.50000000E-01  8.50000000E-01  8.50000000E-01  8.00000000E-01  8.50000000E-01
  8.50000000E-01  8.50000000E-01  8.00000000E-01  8.50000000E-01  8.50000000E-01
  8.50000000E-01  8.00000000E-01  8.50000000E-01  8.50000000E-01  8.50000000E-01
  8.00000000E-01  8.50000000E-01  8.50000000E-01  8.50000000E-01  8.00000000E-01
  8.50000000E-01  8.50000000E-01  8.50000000E-01  8.00000000E-01  8.50000000E-01
  8.50000000E-01  8.50000000E-01  8.00000000E-01  8.50000000E-01  8.50000000E-01
  8.50000000E-01  8.00000000E-01  8.50000000E-01  8.50000000E-01  8.50000000E-01
  8.00000000E-01  8.50000000E-01  8.50000000E-01  8.50000000E-01  8.00000000E-01
  8.50000000E-01  8.50000000E-01  8.50000000E-01  8.00000000E-01  8.50000000E-01
  8.50000000E-01  8.50000000E-01  8.00000000E-01  8.50000000E-01  8.50000000E-01
  8.50000000E-01  8.00000000E-01  8.50000000E-01  8.50000000E-01  8.50000000E-01
  8.00000000E-01  8.50000000E-01  8.50000000E-01  8.50000000E-01  8.00000000E-01
  8.50000000E-01  8.50000000E-01  8.50000000E-01  8.00000000E-01  8.50000000E-01
  8.50000000E-01  8.50000000E-01  8.00000000E-01  8.50000000E-01  8.50000000E-01
  8.50000000E-01  8.00000000E-01  8.50000000E-01  8.50000000E-01  8.50000000E-01
  8.00000000E-01  8.50000000E-01  8.50000000E-01  8.50000000E-01  8.00000000E-01
  8.50000000E-01  8.50000000E-01  8.50000000E-01  8.00000000E-01  8.50000000E-01
  8.50000000E-01  8.50000000E-01  8.00000000E-01  8.50000000E-01  8.50000000E-01
  8.50000000E-01  8.00000000E-01  8.50000000E-01  8.50000000E-01  8.50000000E-01
  8.00000000E-01  8.50000000E-01  8.50000000E-01  8.50000000E-01  8.00000000E-01
  8.50000000E-01  8.50000000E-01  8.50000000E-01  8.00000000E-01  8.50000000E-01
  8.50000000E-01  8.50000000E-01  8.00000000E-01  8.50000000E-01  8.50000000E-01
  8.50000000E-01  8.00000000E-01  8.50000000E-01  8.50000000E-01  8.50000000E-01
  8.00000000E-01  8.50000000E-01  8.50000000E-01  8.50000000E-01  8.00000000E-01
  8.50000000E-01  8.50000000E-01  8.50000000E-01  8.00000000E-01  8.50000000E-01
  8.50000000E-01  8.50000000E-01  8.00000000E-01  8.50000000E-01  8.50000000E-01
  8.50000000E-01  8.00000000E-01  8.50000000E-01  8.50000000E-01  8.50000000E-01
  8.00000000E-01  8.50000000E-01  8.50000000E-01  8.50000000E-01  8.00000000E-01
  8.50000000E-01  8.50000000E-01  8.50000000E-01  8.00000000E-01  8.50000000E-01
  8.50000000E-01  8.50000000E-01  8.00000000E-01  8.50000000E-01  8.50000000E-01
  8.50000000E-01  8.00000000E-01  8.50000000E-01  8.50000000E-01  8.50000000E-01
  8.00000000E-01  8.50000000E-01  8.50000000E-01  8.50000000E-01  8.00000000E-01
  8.50000000E-01  8.50000000E-01  8.50000000E-01  8.00000000E-01  8.50000000E-01
  8.50000000E-01  8.50000000E-01  8.00000000E-01  8.50000000E-01  8.50000000E-01
  8.50000000E-01  8.00000000E-01  8.50000000E-01  8.50000000E-01  8.50000000E-01
  8.00000000E-01  8.50000000E-01  8.50000000E-01  8.50000000E-01  8.00000000E-01
  8.50000000E-01  8.50000000E-01  8.50000000E-01  8.00000000E-01  8.50000000E-01
  8.50000000E-01  8.50000000E-01  8.00000000E-01  8.50000000E-01  8.50000000E-01
  8.50000000E-01  8.00000000E-01  8.50000000E-01  8.50000000E-01  8.50000000E-01
  8.00000000E-01  8.50000000E-01  8.50000000E-01  8.50000000E-01  8.00000000E-01
  8.50000000E-01  8.50000000E-01  8.50000000E-01  8.00000000E-01  8.50000000E-01
  8.50000000E-01  8.50000000E-01  8.00000000E-01  8.50000000E-01  8.50000000E-01
  8.50000000E-01  8.00000000E-01  8.50000000E-01  8.50000000E-01  8.50000000E-01
  8.00000000E-01  8.50000000E-01  8.50000000E-01  8.50000000E-01  8.00000000E-01
  8.50000000E-01  8.50000000E-01  8.50000000E-01  8.00000000E-01  8.50000000E-01
  8.50000000E-01  8.50000000E-01  8.00000000E-01  8.50000000E-01  8.50000000E-01
  8.50000000E-01  8.00000000E-01  8.50000000E-01  8.50000000E-01  8.50000000E-01
  8.00000000E-01  8.50000000E-01  8.50000000E-01  8.50000000E-01  8.00000000E-01
  8.50000000E-01  8.50000000E-01  8.50000000E-01  8.00000000E-01  8.50000000E-01
  8.50000000E-01  8.50000000E-01  8.00000000E-01  8.50000000E-01  8.50000000E-01
  8.50000000E-01  8.00000000E-01  8.50000000E-01  8.50000000E-01  8.50000000E-01
  8.00000000E-01  8.50000000E-01  8.50000000E-01  8.50000000E-01  8.00000000E-01
  8.50000000E-01  8.50000000E-01  8.50000000E-01  8.00000000E-01  8.50000000E-01
  8.50000000E-01  8.50000000E-01  8.00000000E-01  8.50000000E-01  8.50000000E-01
  8.50000000E-01  8.00000000E-01  8.50000000E-01  8.50000000E-01  8.50000000E-01
  8.00000000E-01  8.50000000E-01  8.50000000E-01  8.50000000E-01  8.00000000E-01
  8.50000000E-01  8.50000000E-01  8.50000000E-01  8.00000000E-01  8.50000000E-01
  8.50000000E-01  8.50000000E-01  8.00000000E-01  8.50000000E-01  8.50000000E-01
  8.50000000E-01  8.00000000E-01  8.50000000E-01  8.50000000E-01  8.50000000E-01
  8.00000000E-01  8.50000000E-01  8.50000000E-01  8.50000000E-01  8.00000000E-01
  8.50000000E-01  8.50000000E-01  8.50000000E-01  8.00000000E-01  8.50000000E-01
  8.50000000E-01  8.50000000E-01  8.00000000E-01  8.50000000E-01  8.50000000E-01
  8.50000000E-01  8.00000000E-01  8.50000000E-01  8.50000000E-01  8.50000000E-01
  8.00000000E-01  8.50000000E-01  8.50000000E-01  8.50000000E-01  8.00000000E-01
  8.50000000E-01  8.50000000E-01  8.50000000E-01  8.00000000E-01  8.50000000E-01
  8.50000000E-01  8.50000000E-01  8.00000000E-01  8.50000000E-01  8.50000000E-01
  8.50000000E-01  8.00000000E-01  8.50000000E-01  8.50000000E-01  8.50000000E-01
  8.00000000E-01  8.50000000E-01  8.50000000E-01  8.50000000E-01  8.00000000E-01
  8.50000000E-01  8.50000000E-01  8.50000000E-01  8.00000000E-01  8.50000000E-01
  8.50000000E-01  8.50000000E-01  8.00000000E-01  8.50000000E-01  8.50000000E-01
  8.50000000E-01  8.00000000E-01  8.50000000E-01  8.50000000E-01  8.50000000E-01
  8.00000000E-01  8.50000000E-01  8.50000000E-01  8.50000000E-01  8.00000000E-01
  8.50000000E-01  8.50000000E-01  8.50000000E-01  8.00000000E-01  8.50000000E-01
  8.50000000E-01  8.50000000E-01  8.00000000E-01  8.50000000E-01  8.50000000E-01
  8.50000000E-01  8.00000000E-01  8.50000000E-01  8.50000000E-01  8.50000000E-01
  8.00000000E-01  8.50000000E-01  8.50000000E-01  8.50000000E-01  8.00000000E-01
  8.50000000E-01  8.50000000E-01  8.50000000E-01  8.00000000E-01  8.50000000E-01
  8.50000000E-01  8.50000000E-01  8.00000000E-01  8.50000000E-01  8.50000000E-01
  8.50000000E-01  8.00000000E-01  8.50000000E-01  8.50000000E-01  8.50000000E-01
  8.00000000E-01  8.50000000E-01  8.50000000E-01  8.50000000E-01  8.00000000E-01
  8.50000000E-01  8.50000000E-01  8.50000000E-01  8.00000000E-01  8.50000000E-01
  8.50000000E-01  8.50000000E-01  8.00000000E-01  8.50000000E-01  8.50000000E-01
  8.50000000E-01  8.00000000E-01  8.50000000E-01  8.50000000E-01  8.50000000E-01
  8.00000000E-01  8.50000000E-01  8.50000000E-01  8.50000000E-01  8.00000000E-01
  8.50000000E-01  8.50000000E-01  8.50000000E-01  8.00000000E-01  8.50000000E-01
  8.50000000E-01  8.50000000E-01  8.00000000E-01  8.50000000E-01  8.50000000E-01
  8.50000000E-01  8.00000000E-01  8.50000000E-01  8.50000000E-01  8.50000000E-01
  8.00000000E-01  8.50000000E-01  8.50000000E-01  8.50000000E-01  8.00000000E-01
  8.50000000E-01  8.50000000E-01  8.50000000E-01  8.00000000E-01  8.50000000E-01
  8.50000000E-01  8.50000000E-01  8.00000000E-01  8.50000000E-01  8.50000000E-01
  8.50000000E-01  8.00000000E-01  8.50000000E-01  8.50000000E-01  8.50000000E-01
  8.00000000E-01  8.50000000E-01  8.50000000E-01  8.50000000E-01  8.00000000E-01
  8.50000000E-01  8.50000000E-01  8.50000000E-01  8.00000000E-01  8.50000000E-01
  8.50000000E-01  8.50000000E-01  8.00000000E-01  8.50000000E-01  8.50000000E-01
  8.50000000E-01  8.00000000E-01  8.50000000E-01  8.50000000E-01  8.50000000E-01
  8.00000000E-01  8.50000000E-01  8.50000000E-01  8.50000000E-01  8.00000000E-01
  8.50000000E-01  8.50000000E-01  8.50000000E-01  8.00000000E-01  8.50000000E-01
  8.50000000E-01  8.50000000E-01  8.00000000E-01  8.50000000E-01  8.50000000E-01
  8.50000000E-01  8.00000000E-01  8.50000000E-01  8.50000000E-01  8.50000000E-01
  8.00000000E-01  8.50000000E-01  8.50000000E-01  8.50000000E-01  8.00000000E-01
  8.50000000E-01  8.50000000E-01  8.50000000E-01  8.00000000E-01  8.50000000E-01
  8.50000000E-01  8.50000000E-01  8.00000000E-01  8.50000000E-01  8.50000000E-01
  8.50000000E-01  8.00000000E-01  8.50000000E-01  8.50000000E-01  8.50000000E-01
  8.00000000E-01  8.50000000E-01  8.50000000E-01  8.50000000E-01  8.00000000E-01
  8.50000000E-01  8.50000000E-01  8.50000000E-01  8.00000000E-01  8.50000000E-01
  8.50000000E-01  8.50000000E-01  8.00000000E-01  8.50000000E-01  8.50000000E-01
  8.50000000E-01  8.00000000E-01  8.50000000E-01  8.50000000E-01  8.50000000E-01
  8.00000000E-01  8.50000000E-01  8.50000000E-01  8.50000000E-01  8.00000000E-01
  8.50000000E-01  8.50000000E-01  8.50000000E-01  8.00000000E-01  8.50000000E-01
  8.50000000E-01  8.50000000E-01  8.00000000E-01  8.50000000E-01  8.50000000E-01
  8.50000000E-01  8.00000000E-01  8.50000000E-01  8.50000000E-01  8.50000000E-01
  8.00000000E-01  8.50000000E-01  8.50000000E-01  8.50000000E-01  8.00000000E-01
  8.50000000E-01  8.50000000E-01  8.50000000E-01  8.00000000E-01  8.50000000E-01
  8.50000000E-01  8.50000000E-01  8.00000000E-01  8.50000000E-01  8.50000000E-01
  8.50000000E-01  8.00000000E-01  8.50000000E-01  8.50000000E-01  8.50000000E-01
  8.00000000E-01  8.50000000E-01  8.50000000E-01  8.50000000E-01  8.00000000E-01
  8.50000000E-01  8.50000000E-01  8.50000000E-01  8.00000000E-01  8.50000000E-01
  8.50000000E-01  8.50000000E-01  8.00000000E-01  8.50000000E-01  8.50000000E-01
  8.50000000E-01  8.00000000E-01  8.50000000E-01  8.50000000E-01  8.50000000E-01
  8.00000000E-01  8.50000000E-01  8.50000000E-01  8.50000000E-01  8.00000000E-01
  8.50000000E-01  8.50000000E-01  8.50000000E-01  8.00000000E-01  8.50000000E-01
  8.50000000E-01  8.50000000E-01  8.00000000E-01  8.50000000E-01  8.50000000E-01
  8.50000000E-01  8.00000000E-01  8.50000000E-01  8.50000000E-01  8.50000000E-01
  8.00000000E-01  8.50000000E-01  8.50000000E-01  8.50000000E-01  8.00000000E-01
  8.50000000E-01  8.50000000E-01  8.50000000E-01  8.00000000E-01  8.50000000E-01
  8.50000000E-01  8.50000000E-01  8.00000000E-01  8.50000000E-01  8.50000000E-01
  8.50000000E-01  8.00000000E-01  8.50000000E-01  8.50000000E-01  8.50000000E-01
  8.00000000E-01  8.50000000E-01  8.50000000E-01  8.50000000E-01  8.00000000E-01
  8.50000000E-01  8.50000000E-01  8.50000000E-01  8.00000000E-01  8.50000000E-01
  8.50000000E-01  8.50000000E-01  8.00000000E-01  8.50000000E-01  8.50000000E-01
  8.50000000E-01  8.00000000E-01  8.50000000E-01  8.50000000E-01  8.50000000E-01
  8.00000000E-01  8.50000000E-01  8.50000000E-01  8.50000000E-01  8.00000000E-01
  8.50000000E-01  8.50000000E-01  8.50000000E-01  8.00000000E-01  8.50000000E-01
  8.50000000E-01  8.50000000E-01  8.00000000E-01  8.50000000E-01  8.50000000E-01
  8.50000000E-01  8.00000000E-01  8.50000000E-01  8.50000000E-01  8.50000000E-01
  8.00000000E-01  8.50000000E-01  8.50000000E-01  8.50000000E-01  8.00000000E-01
  8.50000000E-01  8.50000000E-01  8.50000000E-01  8.00000000E-01  8.50000000E-01
  8.50000000E-01  8.50000000E-01  8.00000000E-01  8.50000000E-01  8.50000000E-01
  8.50000000E-01  8.00000000E-01  8.50000000E-01  8.50000000E-01  8.50000000E-01
  8.00000000E-01  8.50000000E-01  8.50000000E-01  8.50000000E-01  8.00000000E-01
  8.50000000E-01  8.50000000E-01  8.50000000E-01  8.00000000E-01  8.50000000E-01
  8.50000000E-01  8.50000000E-01  8.00000000E-01  8.50000000E-01  8.50000000E-01
  8.50000000E-01  8.00000000E-01  8.50000000E-01  8.50000000E-01  8.50000000E-01
  8.00000000E-01  8.50000000E-01  8.50000000E-01  8.50000000E-01  8.00000000E-01
  8.50000000E-01  8.50000000E-01  8.50000000E-01  8.00000000E-01  8.50000000E-01
  8.50000000E-01  8.50000000E-01  8.00000000E-01  8.50000000E-01  8.50000000E-01
  8.50000000E-01  8.00000000E-01  8.50000000E-01  8.50000000E-01  8.50000000E-01
  8.00000000E-01  8.50000000E-01  8.50000000E-01  8.50000000E-01  8.00000000E-01
  8.50000000E-01  8.50000000E-01  8.50000000E-01  8.00000000E-01  8.50000000E-01
  8.50000000E-01  8.50000000E-01  8.00000000E-01  8.50000000E-01  8.50000000E-01
  8.50000000E-01  8.00000000E-01  8.50000000E-01  8.50000000E-01  8.50000000E-01
  8.00000000E-01  8.50000000E-01  8.50000000E-01  8.50000000E-01  8.00000000E-01
  8.50000000E-01  8.50000000E-01  8.50000000E-01  8.00000000E-01  8.50000000E-01
  8.50000000E-01  8.50000000E-01  8.00000000E-01  8.50000000E-01  8.50000000E-01
  8.50000000E-01  8.00000000E-01  8.50000000E-01  8.50000000E-01  8.50000000E-01
  8.00000000E-01  8.50000000E-01  8.50000000E-01  8.50000000E-01  8.00000000E-01
  8.50000000E-01  8.50000000E-01  8.50000000E-01  8.00000000E-01  8.50000000E-01
  8.50000000E-01  8.50000000E-01  8.00000000E-01  8.50000000E-01  8.50000000E-01
  8.50000000E-01  8.00000000E-01  8.50000000E-01  8.50000000E-01  8.50000000E-01
  8.00000000E-01  8.50000000E-01  8.50000000E-01  8.50000000E-01  8.00000000E-01
  8.50000000E-01  8.50000000E-01  8.50000000E-01  8.00000000E-01  8.50000000E-01
  8.50000000E-01  8.50000000E-01  8.00000000E-01  8.50000000E-01  8.50000000E-01
  8.50000000E-01  8.00000000E-01  8.50000000E-01  8.50000000E-01  8.50000000E-01
  8.00000000E-01  8.50000000E-01  8.50000000E-01  8.50000000E-01  8.00000000E-01
  8.50000000E-01  8.50000000E-01  8.50000000E-01  8.00000000E-01  8.50000000E-01
  8.50000000E-01  8.50000000E-01  8.00000000E-01  8.50000000E-01  8.50000000E-01
  8.50000000E-01  8.00000000E-01  8.50000000E-01  8.50000000E-01  8.50000000E-01
  8.00000000E-01  8.50000000E-01  8.50000000E-01  8.50000000E-01  8.00000000E-01
  8.50000000E-01  8.50000000E-01  8.50000000E-01  8.00000000E-01  8.50000000E-01
  8.50000000E-01  8.50000000E-01  8.00000000E-01  8.50000000E-01  8.50000000E-01
  8.50000000E-01  8.00000000E-01  8.50000000E-01  8.50000000E-01  8.50000000E-01
  8.00000000E-01  8.50000000E-01  8.50000000E-01  8.50000000E-01  8.00000000E-01
  8.50000000E-01  8.50000000E-01  8.50000000E-01  8.00000000E-01  8.50000000E-01
  8.50000000E-01  8.50000000E-01  8.00000000E-01  8.50000000E-01  8.50000000E-01
  8.50000000E-01  8.00000000E-01  8.50000000E-01  8.50000000E-01  8.50000000E-01
  8.00000000E-01  8.50000000E-01  8.50000000E-01  8.50000000E-01  8.00000000E-01
  8.50000000E-01  8.50000000E-01  8.50000000E-01  8.00000000E-01  8.50000000E-01
  8.50000000E-01  8.50000000E-01  8.00000000E-01  8.50000000E-01  8.50000000E-01
  8.50000000E-01  8.00000000E-01  8.50000000E-01  8.50000000E-01  8.50000000E-01
  8.00000000E-01  8.50000000E-01  8.50000000E-01  8.50000000E-01  8.00000000E-01
  8.50000000E-01  8.50000000E-01  8.50000000E-01  8.00000000E-01  8.50000000E-01
  8.50000000E-01  8.50000000E-01  8.00000000E-01  8.50000000E-01  8.50000000E-01
  8.50000000E-01  8.00000000E-01  8.50000000E-01  8.50000000E-01  8.50000000E-01
  8.00000000E-01  8.50000000E-01  8.50000000E-01  8.50000000E-01  8.00000000E-01
  8.50000000E-01  8.50000000E-01  8.50000000E-01  8.00000000E-01  8.50000000E-01
  8.50000000E-01  8.50000000E-01  8.00000000E-01  8.50000000E-01  8.50000000E-01
  8.50000000E-01  8.00000000E-01  8.50000000E-01  8.50000000E-01  8.50000000E-01
  8.00000000E-01  8.50000000E-01  8.50000000E-01  8.50000000E-01  8.00000000E-01
  8.50000000E-01  8.50000000E-01  8.50000000E-01  8.00000000E-01  8.50000000E-01
  8.50000000E-01  8.50000000E-01  8.00000000E-01  8.50000000E-01  8.50000000E-01
  8.50000000E-01  8.00000000E-01  8.50000000E-01  8.50000000E-01  8.50000000E-01
  8.00000000E-01  8.50000000E-01  8.50000000E-01  8.50000000E-01  8.00000000E-01
  8.50000000E-01  8.50000000E-01  8.50000000E-01  8.00000000E-01  8.50000000E-01
  8.50000000E-01  8.50000000E-01  8.00000000E-01  8.50000000E-01  8.50000000E-01
  8.50000000E-01  8.00000000E-01  8.50000000E-01  8.50000000E-01  8.50000000E-01
  8.00000000E-01  8.50000000E-01  8.50000000E-01  8.50000000E-01  8.00000000E-01
  8.50000000E-01  8.50000000E-01  8.50000000E-01  8.00000000E-01  8.50000000E-01
  8.50000000E-01  8.50000000E-01  8.00000000E-01  8.50000000E-01  8.50000000E-01
  8.50000000E-01  8.00000000E-01  8.50000000E-01  8.50000000E-01  8.50000000E-01
  8.00000000E-01  8.50000000E-01  8.50000000E-01  8.50000000E-01  8.00000000E-01
  8.50000000E-01  8.50000000E-01  8.50000000E-01  8.00000000E-01  8.50000000E-01
  8.50000000E-01  8.50000000E-01  8.00000000E-01  8.50000000E-01  8.50000000E-01
  8.50000000E-01  8.00000000E-01  8.50000000E-01  8.50000000E-01  8.50000000E-01
  8.00000000E-01  8.50000000E-01  8.50000000E-01  8.50000000E-01  8.00000000E-01
  8.50000000E-01  8.50000000E-01  8.50000000E-01  8.00000000E-01  8.50000000E-01
  8.50000000E-01  8.50000000E-01  8.00000000E-01  8.50000000E-01  8.50000000E-01
  8.50000000E-01  8.00000000E-01  8.50000000E-01  8.50000000E-01  8.50000000E-01
  8.00000000E-01  8.50000000E-01  8.50000000E-01  8.50000000E-01  8.00000000E-01
  8.50000000E-01  8.50000000E-01  8.50000000E-01  8.00000000E-01  8.50000000E-01
  8.50000000E-01  8.50000000E-01  8.00000000E-01  8.50000000E-01  8.50000000E-01
  8.50000000E-01  8.00000000E-01  8.50000000E-01  8.50000000E-01  8.50000000E-01
  8.00000000E-01  8.50000000E-01  8.50000000E-01  8.50000000E-01  8.00000000E-01
  8.50000000E-01  8.50000000E-01  8.50000000E-01  8.00000000E-01  8.50000000E-01
  8.50000000E-01  8.50000000E-01  8.00000000E-01  8.50000000E-01  8.50000000E-01
  8.50000000E-01  8.00000000E-01  8.50000000E-01  8.50000000E-01  8.50000000E-01
  8.00000000E-01  8.50000000E-01  8.50000000E-01  8.50000000E-01  8.00000000E-01
  8.50000000E-01  8.50000000E-01  8.50000000E-01  8.00000000E-01  8.50000000E-01
  8.50000000E-01  8.50000000E-01  8.00000000E-01  8.50000000E-01  8.50000000E-01
  8.50000000E-01  8.00000000E-01  8.50000000E-01  8.50000000E-01  8.50000000E-01
  8.00000000E-01  8.50000000E-01  8.50000000E-01  8.50000000E-01  8.00000000E-01
  8.50000000E-01  8.50000000E-01  8.50000000E-01  8.00000000E-01  8.50000000E-01
  8.50000000E-01  8.50000000E-01  8.00000000E-01  8.50000000E-01  8.50000000E-01
  8.50000000E-01  8.00000000E-01  8.50000000E-01  8.50000000E-01  8.50000000E-01
  8.00000000E-01  8.50000000E-01  8.50000000E-01  8.50000000E-01  8.00000000E-01
  8.50000000E-01  8.50000000E-01  8.50000000E-01  8.00000000E-01  8.50000000E-01
  8.50000000E-01  8.50000000E-01  8.00000000E-01  8.50000000E-01  8.50000000E-01
  8.50000000E-01  8.00000000E-01  8.50000000E-01  8.50000000E-01  8.50000000E-01
  8.00000000E-01  8.50000000E-01  8.50000000E-01  8.50000000E-01  8.00000000E-01
  8.50000000E-01  8.50000000E-01  8.50000000E-01  8.00000000E-01  8.50000000E-01
  8.50000000E-01  8.50000000E-01  8.00000000E-01  8.50000000E-01  8.50000000E-01
  8.50000000E-01  8.00000000E-01  8.50000000E-01  8.50000000E-01  8.50000000E-01
  8.00000000E-01  8.50000000E-01  8.50000000E-01  8.50000000E-01  8.00000000E-01
  8.50000000E-01  8.50000000E-01  8.50000000E-01  8.00000000E-01  8.50000000E-01
  8.50000000E-01  8.50000000E-01  8.00000000E-01  8.50000000E-01  8.50000000E-01
  8.50000000E-01  8.00000000E-01  8.50000000E-01  8.50000000E-01  8.50000000E-01
  8.00000000E-01  8.50000000E-01  8.50000000E-01  8.50000000E-01  8.00000000E-01
  8.50000000E-01  8.50000000E-01  8.50000000E-01  8.00000000E-01  8.50000000E-01
  8.50000000E-01  8.50000000E-01  8.00000000E-01  8.50000000E-01  8.50000000E-01
  8.50000000E-01  8.00000000E-01  8.50000000E-01  8.50000000E-01  8.50000000E-01
  8.00000000E-01  8.50000000E-01  8.50000000E-01  8.50000000E-01  8.00000000E-01
  8.50000000E-01  8.50000000E-01  8.50000000E-01  8.00000000E-01  8.50000000E-01
  8.50000000E-01  8.50000000E-01  8.00000000E-01  8.50000000E-01  8.50000000E-01
  8.50000000E-01  8.00000000E-01  8.50000000E-01  8.50000000E-01  8.50000000E-01
  8.00000000E-01  8.50000000E-01  8.50000000E-01  8.50000000E-01  8.00000000E-01
  8.50000000E-01  8.50000000E-01  8.50000000E-01  8.00000000E-01  8.50000000E-01
  8.50000000E-01  8.50000000E-01  8.00000000E-01  8.50000000E-01  8.50000000E-01
  8.50000000E-01  8.00000000E-01  8.50000000E-01  8.50000000E-01  8.50000000E-01
  8.00000000E-01  8.50000000E-01  8.50000000E-01  8.50000000E-01  8.00000000E-01
  8.50000000E-01  8.50000000E-01  8.50000000E-01  8.00000000E-01  8.50000000E-01
  8.50000000E-01  8.50000000E-01  8.00000000E-01  8.50000000E-01  8.50000000E-01
  8.50000000E-01  8.00000000E-01  8.50000000E-01  8.50000000E-01  8.50000000E-01
  8.00000000E-01  8.50000000E-01  8.50000000E-01  8.50000000E-01  8.00000000E-01
  8.50000000E-01  8.50000000E-01  8.50000000E-01  8.00000000E-01  8.50000000E-01
  8.50000000E-01  8.50000000E-01  8.00000000E-01  8.50000000E-01  8.50000000E-01
  8.50000000E-01  8.00000000E-01  8.50000000E-01  8.50000000E-01  8.50000000E-01
  8.00000000E-01  8.50000000E-01  8.50000000E-01  8.50000000E-01  8.00000000E-01
  8.50000000E-01  8.50000000E-01  8.50000000E-01  8.00000000E-01  8.50000000E-01
  8.50000000E-01  8.50000000E-01  8.00000000E-01  8.50000000E-01  8.50000000E-01
  8.50000000E-01  8.00000000E-01  8.50000000E-01  8.50000000E-01  8.50000000E-01
  8.00000000E-01  8.50000000E-01  8.50000000E-01  8.50000000E-01  8.00000000E-01
  8.50000000E-01  8.50000000E-01  8.50000000E-01  8.00000000E-01  8.50000000E-01
  8.50000000E-01  8.50000000E-01  8.00000000E-01  8.50000000E-01  8.50000000E-01
  8.50000000E-01  8.00000000E-01  8.50000000E-01  8.50000000E-01  8.50000000E-01
  8.00000000E-01  8.50000000E-01  8.50000000E-01  8.50000000E-01  8.00000000E-01
  8.50000000E-01  8.50000000E-01  8.50000000E-01  8.00000000E-01  8.50000000E-01
  8.50000000E-01  8.50000000E-01  8.00000000E-01  8.50000000E-01  8.50000000E-01
  8.50000000E-01  8.00000000E-01  8.50000000E-01  8.50000000E-01  8.50000000E-01
  8.00000000E-01  8.50000000E-01  8.50000000E-01  8.50000000E-01  8.00000000E-01
  8.50000000E-01  8.50000000E-01  8.50000000E-01  8.00000000E-01  8.50000000E-01
  8.50000000E-01  8.50000000E-01  8.00000000E-01  8.50000000E-01  8.50000000E-01
  8.50000000E-01  8.00000000E-01  8.50000000E-01  8.50000000E-01  8.50000000E-01
  8.00000000E-01  8.50000000E-01  8.50000000E-01  8.50000000E-01  8.00000000E-01
  8.50000000E-01  8.50000000E-01  8.50000000E-01  8.00000000E-01  8.50000000E-01
  8.50000000E-01  8.50000000E-01  8.00000000E-01  8.50000000E-01  8.50000000E-01
  8.50000000E-01  8.00000000E-01  8.50000000E-01  8.50000000E-01  8.50000000E-01
  8.00000000E-01  8.50000000E-01  8.50000000E-01  8.50000000E-01  8.00000000E-01
  8.50000000E-01  8.50000000E-01  8.50000000E-01  8.00000000E-01  8.50000000E-01
  8.50000000E-01  8.50000000E-01  8.00000000E-01  8.50000000E-01  8.50000000E-01
  8.50000000E-01  8.00000000E-01  8.50000000E-01  8.50000000E-01  8.50000000E-01
  8.00000000E-01  8.50000000E-01  8.50000000E-01  8.50000000E-01  8.00000000E-01
  8.50000000E-01  8.50000000E-01  8.50000000E-01  8.00000000E-01  8.50000000E-01
  8.50000000E-01  8.50000000E-01  8.00000000E-01  8.50000000E-01  8.50000000E-01
  8.50000000E-01  8.00000000E-01  8.50000000E-01  8.50000000E-01  8.50000000E-01
  8.00000000E-01  8.50000000E-01  8.50000000E-01  8.50000000E-01  8.00000000E-01
  8.50000000E-01  8.50000000E-01  8.50000000E-01  8.00000000E-01  8.50000000E-01
  8.50000000E-01  8.50000000E-01  8.00000000E-01  8.50000000E-01  8.50000000E-01
  8.50000000E-01  8.00000000E-01  8.50000000E-01  8.50000000E-01  8.50000000E-01
  8.00000000E-01  8.50000000E-01  8.50000000E-01  8.50000000E-01  8.00000000E-01
  8.50000000E-01  8.50000000E-01  8.50000000E-01  8.00000000E-01  8.50000000E-01
  8.50000000E-01  8.50000000E-01  8.00000000E-01  8.50000000E-01  8.50000000E-01
  8.50000000E-01  8.00000000E-01  8.50000000E-01  8.50000000E-01  8.50000000E-01
  8.00000000E-01  8.50000000E-01  8.50000000E-01  8.50000000E-01  8.00000000E-01
  8.50000000E-01  8.50000000E-01  8.50000000E-01  8.00000000E-01  8.50000000E-01
  8.50000000E-01  8.50000000E-01  8.00000000E-01  8.50000000E-01  8.50000000E-01
  8.50000000E-01  8.00000000E-01  8.50000000E-01  8.50000000E-01  8.50000000E-01
  8.00000000E-01  8.50000000E-01  8.50000000E-01  8.50000000E-01  8.00000000E-01
  8.50000000E-01  8.50000000E-01  8.50000000E-01  8.00000000E-01  8.50000000E-01
  8.50000000E-01  8.50000000E-01  8.00000000E-01  8.50000000E-01  8.50000000E-01
  8.50000000E-01  8.00000000E-01  8.50000000E-01  8.50000000E-01  8.50000000E-01
  8.00000000E-01  8.50000000E-01  8.50000000E-01  8.50000000E-01  8.00000000E-01
  8.50000000E-01  8.50000000E-01  8.50000000E-01  8.00000000E-01  8.50000000E-01
  8.50000000E-01  8.50000000E-01  8.00000000E-01  8.50000000E-01  8.50000000E-01
  8.50000000E-01  8.00000000E-01  8.50000000E-01  8.50000000E-01  8.50000000E-01
  8.00000000E-01  8.50000000E-01  8.50000000E-01  8.50000000E-01  8.00000000E-01
  8.50000000E-01  8.50000000E-01  8.50000000E-01  8.00000000E-01  8.50000000E-01
  8.50000000E-01  8.50000000E-01  8.00000000E-01  8.50000000E-01  8.50000000E-01
  8.50000000E-01  8.00000000E-01  8.50000000E-01  8.50000000E-01  8.50000000E-01
  8.00000000E-01  8.50000000E-01  8.50000000E-01  8.50000000E-01  8.00000000E-01
  8.50000000E-01  8.50000000E-01  8.50000000E-01  8.00000000E-01  8.50000000E-01
  8.50000000E-01  8.50000000E-01  8.00000000E-01  8.50000000E-01  8.50000000E-01
  8.50000000E-01  8.00000000E-01  8.50000000E-01  8.50000000E-01  8.50000000E-01
  8.00000000E-01  8.50000000E-01  8.50000000E-01  8.50000000E-01  8.00000000E-01
  8.50000000E-01  8.50000000E-01  8.50000000E-01  8.00000000E-01  8.50000000E-01
  8.50000000E-01  8.50000000E-01  8.00000000E-01  8.50000000E-01  8.50000000E-01
  8.50000000E-01  8.00000000E-01  8.50000000E-01  8.50000000E-01  8.50000000E-01
  8.00000000E-01  8.50000000E-01  8.50000000E-01  8.50000000E-01  8.00000000E-01
  8.50000000E-01  8.50000000E-01  8.50000000E-01  8.00000000E-01  8.50000000E-01
  8.50000000E-01  8.50000000E-01  8.00000000E-01  8.50000000E-01  8.50000000E-01
  8.50000000E-01  8.00000000E-01  8.50000000E-01  8.50000000E-01  8.50000000E-01
  8.00000000E-01  8.50000000E-01  8.50000000E-01  8.50000000E-01  8.00000000E-01
  8.50000000E-01  8.50000000E-01  8.50000000E-01  8.00000000E-01  8.50000000E-01
  8.50000000E-01  8.50000000E-01  8.00000000E-01  8.50000000E-01  8.50000000E-01
  8.50000000E-01  8.00000000E-01  8.50000000E-01  8.50000000E-01  8.50000000E-01
  8.00000000E-01  8.50000000E-01  8.50000000E-01  8.50000000E-01  8.00000000E-01
  8.50000000E-01  8.50000000E-01  8.50000000E-01  8.00000000E-01  8.50000000E-01
  8.50000000E-01  8.50000000E-01  8.00000000E-01  8.50000000E-01  8.50000000E-01
  8.50000000E-01  8.00000000E-01  8.50000000E-01  8.50000000E-01  8.50000000E-01
  8.00000000E-01  8.50000000E-01  8.50000000E-01  8.50000000E-01  8.00000000E-01
  8.50000000E-01  8.50000000E-01  8.50000000E-01  8.00000000E-01  8.50000000E-01
  8.50000000E-01  8.50000000E-01  8.00000000E-01  8.50000000E-01  8.50000000E-01
  8.50000000E-01  8.00000000E-01  8.50000000E-01  8.50000000E-01  8.50000000E-01
  8.00000000E-01  8.50000000E-01  8.50000000E-01  8.50000000E-01  8.00000000E-01
  8.50000000E-01  8.50000000E-01  8.50000000E-01  8.00000000E-01  8.50000000E-01
  8.50000000E-01  8.50000000E-01  8.00000000E-01  8.50000000E-01  8.50000000E-01
  8.50000000E-01  8.00000000E-01  8.50000000E-01  8.50000000E-01  8.50000000E-01
  8.00000000E-01  8.50000000E-01  8.50000000E-01  8.50000000E-01  8.00000000E-01
  8.50000000E-01  8.50000000E-01  8.50000000E-01  8.00000000E-01  8.50000000E-01
  8.50000000E-01  8.50000000E-01  8.00000000E-01  8.50000000E-01  8.50000000E-01
  8.50000000E-01  8.00000000E-01  8.50000000E-01  8.50000000E-01  8.50000000E-01
  8.00000000E-01  8.50000000E-01  8.50000000E-01  8.50000000E-01  8.00000000E-01
  8.50000000E-01  8.50000000E-01  8.50000000E-01  8.00000000E-01  8.50000000E-01
  8.50000000E-01  8.50000000E-01  8.00000000E-01  8.50000000E-01  8.50000000E-01
  8.50000000E-01  8.00000000E-01  8.50000000E-01  8.50000000E-01  8.50000000E-01
  8.00000000E-01  8.50000000E-01  8.50000000E-01  8.50000000E-01  8.00000000E-01
  8.50000000E-01  8.50000000E-01  8.50000000E-01  8.00000000E-01  8.50000000E-01
  8.50000000E-01  8.50000000E-01  8.00000000E-01  8.50000000E-01  8.50000000E-01
  8.50000000E-01  8.00000000E-01  8.50000000E-01  8.50000000E-01  8.50000000E-01
  8.00000000E-01  8.50000000E-01  8.50000000E-01  8.50000000E-01  8.00000000E-01
  8.50000000E-01  8.50000000E-01  8.50000000E-01  8.00000000E-01  8.50000000E-01
  8.50000000E-01  8.50000000E-01  8.00000000E-01  8.50000000E-01  8.50000000E-01
  8.50000000E-01  8.00000000E-01  8.50000000E-01  8.50000000E-01  8.50000000E-01
  8.00000000E-01  8.50000000E-01  8.50000000E-01  8.50000000E-01  8.00000000E-01
  8.50000000E-01  8.50000000E-01  8.50000000E-01  8.00000000E-01  8.50000000E-01
  8.50000000E-01  8.50000000E-01  8.00000000E-01  8.50000000E-01  8.50000000E-01
  8.50000000E-01  8.00000000E-01  8.50000000E-01  8.50000000E-01  8.50000000E-01
  8.00000000E-01  8.50000000E-01  8.50000000E-01  8.50000000E-01  8.00000000E-01
  8.50000000E-01  8.50000000E-01  8.50000000E-01  8.00000000E-01  8.50000000E-01
  8.50000000E-01  8.50000000E-01  8.00000000E-01  8.50000000E-01  8.50000000E-01
  8.50000000E-01  8.00000000E-01  8.50000000E-01  8.50000000E-01  8.50000000E-01
  8.00000000E-01  8.50000000E-01  8.50000000E-01  8.50000000E-01  8.00000000E-01
  8.50000000E-01  8.50000000E-01  8.50000000E-01  8.00000000E-01  8.50000000E-01
  8.50000000E-01  8.50000000E-01  8.00000000E-01  8.50000000E-01  8.50000000E-01
  8.50000000E-01  8.00000000E-01  8.50000000E-01  8.50000000E-01  8.50000000E-01
  8.00000000E-01  8.50000000E-01  8.50000000E-01  8.50000000E-01  8.00000000E-01
  8.50000000E-01  8.50000000E-01  8.50000000E-01  8.00000000E-01  8.50000000E-01
  8.50000000E-01  8.50000000E-01  8.00000000E-01  8.50000000E-01  8.50000000E-01
  8.50000000E-01  8.00000000E-01  8.50000000E-01  8.50000000E-01  8.50000000E-01
  8.00000000E-01  8.50000000E-01  8.50000000E-01  8.50000000E-01  8.00000000E-01
  8.50000000E-01  8.50000000E-01  8.50000000E-01  8.00000000E-01  8.50000000E-01
  8.50000000E-01  8.50000000E-01  8.00000000E-01  8.50000000E-01  8.50000000E-01
  8.50000000E-01  8.00000000E-01  8.50000000E-01  8.50000000E-01  8.50000000E-01
  8.00000000E-01  8.50000000E-01  8.50000000E-01  8.50000000E-01  8.00000000E-01
  8.50000000E-01  8.50000000E-01  8.50000000E-01  8.00000000E-01  8.50000000E-01
  8.50000000E-01  8.50000000E-01  8.00000000E-01  8.50000000E-01  8.50000000E-01
  8.50000000E-01  8.00000000E-01  8.50000000E-01  8.50000000E-01  8.50000000E-01
  8.00000000E-01  8.50000000E-01  8.50000000E-01  8.50000000E-01  8.00000000E-01
  8.50000000E-01  8.50000000E-01  8.50000000E-01  8.00000000E-01  8.50000000E-01
  8.50000000E-01  8.50000000E-01  8.00000000E-01  8.50000000E-01  8.50000000E-01
  8.50000000E-01  8.00000000E-01  8.50000000E-01  8.50000000E-01  8.50000000E-01
  8.00000000E-01  8.50000000E-01  8.50000000E-01  8.50000000E-01  8.00000000E-01
  8.50000000E-01  8.50000000E-01  8.50000000E-01  8.00000000E-01  8.50000000E-01
  8.50000000E-01  8.50000000E-01  8.00000000E-01  8.50000000E-01  8.50000000E-01
  8.50000000E-01  8.00000000E-01  8.50000000E-01  8.50000000E-01  8.50000000E-01
  8.00000000E-01  8.50000000E-01  8.50000000E-01  8.50000000E-01  8.00000000E-01
  8.50000000E-01  8.50000000E-01  8.50000000E-01  8.00000000E-01  8.50000000E-01
  8.50000000E-01  8.50000000E-01  8.00000000E-01  8.50000000E-01  8.50000000E-01
  8.50000000E-01  8.00000000E-01  8.50000000E-01  8.50000000E-01  8.50000000E-01
  8.00000000E-01  8.50000000E-01  8.50000000E-01  8.50000000E-01  8.00000000E-01
  8.50000000E-01  8.50000000E-01  8.50000000E-01  8.00000000E-01  8.50000000E-01
  8.50000000E-01  8.50000000E-01  8.00000000E-01  8.50000000E-01  8.50000000E-01
  8.50000000E-01  8.00000000E-01  8.50000000E-01  8.50000000E-01  8.50000000E-01
  8.00000000E-01  8.50000000E-01  8.50000000E-01  8.50000000E-01  8.00000000E-01
  8.50000000E-01  8.50000000E-01  8.50000000E-01  8.00000000E-01  8.50000000E-01
  8.50000000E-01  8.50000000E-01  8.00000000E-01  8.50000000E-01  8.50000000E-01
  8.50000000E-01  8.00000000E-01  8.50000000E-01  8.50000000E-01  8.50000000E-01
  8.00000000E-01  8.50000000E-01  8.50000000E-01  8.50000000E-01  8.00000000E-01
  8.50000000E-01  8.50000000E-01  8.50000000E-01  8.00000000E-01  8.50000000E-01
  8.50000000E-01  8.50000000E-01  8.00000000E-01  8.50000000E-01  8.50000000E-01
  8.50000000E-01  8.00000000E-01  8.50000000E-01  8.50000000E-01  8.50000000E-01
  8.00000000E-01  8.50000000E-01  8.50000000E-01  8.50000000E-01  8.00000000E-01
  8.50000000E-01  8.50000000E-01  8.50000000E-01  8.00000000E-01  8.50000000E-01
  8.50000000E-01  8.50000000E-01  8.00000000E-01  8.50000000E-01  8.50000000E-01
  8.50000000E-01  8.00000000E-01  8.50000000E-01  8.50000000E-01  8.50000000E-01
  8.00000000E-01  8.50000000E-01  8.50000000E-01  8.50000000E-01  8.00000000E-01
  8.50000000E-01  8.50000000E-01  8.50000000E-01  8.00000000E-01  8.50000000E-01
  8.50000000E-01  8.50000000E-01  8.00000000E-01  8.50000000E-01  8.50000000E-01
  8.50000000E-01  8.00000000E-01  8.50000000E-01  8.50000000E-01  8.50000000E-01
  8.00000000E-01  8.50000000E-01  8.50000000E-01  8.50000000E-01  8.00000000E-01
  8.50000000E-01  8.50000000E-01  8.50000000E-01  8.00000000E-01  8.50000000E-01
  8.50000000E-01  8.50000000E-01  8.00000000E-01  8.50000000E-01  8.50000000E-01
  8.50000000E-01  8.00000000E-01  8.50000000E-01  8.50000000E-01  8.50000000E-01
  8.00000000E-01  8.50000000E-01  8.50000000E-01  8.50000000E-01  8.00000000E-01
  8.50000000E-01  8.50000000E-01  8.50000000E-01  8.00000000E-01  8.50000000E-01
  8.50000000E-01  8.50000000E-01  8.00000000E-01  8.50000000E-01  8.50000000E-01
  8.50000000E-01  8.00000000E-01  8.50000000E-01  8.50000000E-01  8.50000000E-01
  8.00000000E-01  8.50000000E-01  8.50000000E-01  8.50000000E-01  8.00000000E-01
  8.50000000E-01  8.50000000E-01  8.50000000E-01  8.00000000E-01  8.50000000E-01
  8.50000000E-01  8.50000000E-01  8.00000000E-01  8.50000000E-01  8.50000000E-01
  8.50000000E-01  8.00000000E-01  8.50000000E-01  8.50000000E-01  8.50000000E-01
  8.00000000E-01  8.50000000E-01  8.50000000E-01  8.50000000E-01  8.00000000E-01
  8.50000000E-01  8.50000000E-01  8.50000000E-01  8.00000000E-01  8.50000000E-01
  8.50000000E-01  8.50000000E-01  8.00000000E-01  8.50000000E-01  8.50000000E-01
  8.50000000E-01  8.00000000E-01  8.50000000E-01  8.50000000E-01  8.50000000E-01
  8.00000000E-01  8.50000000E-01  8.50000000E-01  8.50000000E-01  8.00000000E-01
  8.50000000E-01  8.50000000E-01  8.50000000E-01  8.00000000E-01  8.50000000E-01
  8.50000000E-01  8.50000000E-01  8.00000000E-01  8.50000000E-01  8.50000000E-01
  8.50000000E-01  8.00000000E-01  8.50000000E-01  8.50000000E-01  8.50000000E-01
  8.00000000E-01  8.50000000E-01  8.50000000E-01  8.50000000E-01  8.00000000E-01
  8.50000000E-01  8.50000000E-01  8.50000000E-01  8.00000000E-01  8.50000000E-01
  8.50000000E-01  8.50000000E-01  8.00000000E-01  8.50000000E-01  8.50000000E-01
  8.50000000E-01  8.00000000E-01  8.50000000E-01  8.50000000E-01  8.50000000E-01
  8.00000000E-01  8.50000000E-01  8.50000000E-01  8.50000000E-01  8.00000000E-01
  8.50000000E-01  8.50000000E-01  8.50000000E-01  8.00000000E-01  8.50000000E-01
  8.50000000E-01  8.50000000E-01  8.00000000E-01  8.50000000E-01  8.50000000E-01
  8.50000000E-01  8.00000000E-01  8.50000000E-01  8.50000000E-01  8.50000000E-01
  8.00000000E-01  8.50000000E-01  8.50000000E-01  8.50000000E-01  8.00000000E-01
  8.50000000E-01  8.50000000E-01  8.50000000E-01  8.00000000E-01  8.50000000E-01
  8.50000000E-01  8.50000000E-01  8.00000000E-01  8.50000000E-01  8.50000000E-01
  8.50000000E-01  8.00000000E-01  8.50000000E-01  8.50000000E-01  8.50000000E-01
  8.00000000E-01  8.50000000E-01  8.50000000E-01  8.50000000E-01  8.00000000E-01
  8.50000000E-01  8.50000000E-01  8.50000000E-01  8.00000000E-01  8.50000000E-01
  8.50000000E-01  8.50000000E-01  8.00000000E-01  8.50000000E-01  8.50000000E-01
  8.50000000E-01  8.00000000E-01  8.50000000E-01  8.50000000E-01  8.50000000E-01
  8.00000000E-01  8.50000000E-01  8.50000000E-01  8.50000000E-01  8.00000000E-01
  8.50000000E-01  8.50000000E-01  8.50000000E-01  8.00000000E-01  8.50000000E-01
  8.50000000E-01  8.50000000E-01  8.00000000E-01  8.50000000E-01  8.50000000E-01
  8.50000000E-01  8.00000000E-01  8.50000000E-01  8.50000000E-01  8.50000000E-01
  8.00000000E-01  8.50000000E-01  8.50000000E-01  8.50000000E-01  8.00000000E-01
  8.50000000E-01  8.50000000E-01  8.50000000E-01  8.00000000E-01  8.50000000E-01
  8.50000000E-01  8.50000000E-01  8.00000000E-01  8.50000000E-01  8.50000000E-01
  8.50000000E-01  8.00000000E-01  8.50000000E-01  8.50000000E-01  8.50000000E-01
  8.00000000E-01  8.50000000E-01  8.50000000E-01  8.50000000E-01  8.00000000E-01
  8.50000000E-01  8.50000000E-01  8.50000000E-01  8.00000000E-01  8.50000000E-01
  8.50000000E-01  8.50000000E-01  8.00000000E-01  8.50000000E-01  8.50000000E-01
  8.50000000E-01  8.00000000E-01  8.50000000E-01  8.50000000E-01  8.50000000E-01
  8.00000000E-01  8.50000000E-01  8.50000000E-01  8.50000000E-01  8.00000000E-01
  8.50000000E-01  8.50000000E-01  8.50000000E-01  8.00000000E-01  8.50000000E-01
  8.50000000E-01  8.50000000E-01  8.00000000E-01  8.50000000E-01  8.50000000E-01
  8.50000000E-01  8.00000000E-01  8.50000000E-01  8.50000000E-01  8.50000000E-01
  8.00000000E-01  8.50000000E-01  8.50000000E-01  8.50000000E-01  8.00000000E-01
  8.50000000E-01  8.50000000E-01  8.50000000E-01  8.00000000E-01  8.50000000E-01
  8.50000000E-01  8.50000000E-01  8.00000000E-01  8.50000000E-01  8.50000000E-01
  8.50000000E-01  8.00000000E-01  8.50000000E-01  8.50000000E-01  8.50000000E-01
  8.00000000E-01  8.50000000E-01  8.50000000E-01  8.50000000E-01  8.00000000E-01
  8.50000000E-01  8.50000000E-01  8.50000000E-01  8.00000000E-01  8.50000000E-01
  8.50000000E-01  8.50000000E-01  8.00000000E-01  8.50000000E-01  8.50000000E-01
  8.50000000E-01  8.00000000E-01  8.50000000E-01  8.50000000E-01  8.50000000E-01
  8.00000000E-01  8.50000000E-01  8.50000000E-01  8.50000000E-01  8.00000000E-01
  8.50000000E-01  8.50000000E-01  8.50000000E-01  8.00000000E-01  8.50000000E-01
  8.50000000E-01  8.50000000E-01  8.00000000E-01  8.50000000E-01  8.50000000E-01
  8.50000000E-01  8.00000000E-01  8.50000000E-01  8.50000000E-01  8.50000000E-01
  8.00000000E-01  8.50000000E-01  8.50000000E-01  8.50000000E-01  8.00000000E-01
  8.50000000E-01  8.50000000E-01  8.50000000E-01  8.00000000E-01  8.50000000E-01
  8.50000000E-01  8.50000000E-01  8.00000000E-01  8.50000000E-01  8.50000000E-01
  8.50000000E-01  8.00000000E-01  8.50000000E-01  8.50000000E-01  8.50000000E-01
  8.00000000E-01  8.50000000E-01  8.50000000E-01  8.50000000E-01  8.00000000E-01
  8.50000000E-01  8.50000000E-01  8.50000000E-01  8.00000000E-01  8.50000000E-01
  8.50000000E-01  8.50000000E-01  8.00000000E-01  8.50000000E-01  8.50000000E-01
  8.50000000E-01  8.00000000E-01  8.50000000E-01  8.50000000E-01  8.50000000E-01
  8.00000000E-01  8.50000000E-01  8.50000000E-01  8.50000000E-01  8.00000000E-01
  8.50000000E-01  8.50000000E-01  8.50000000E-01  8.00000000E-01  8.50000000E-01
  8.50000000E-01  8.50000000E-01  8.00000000E-01  8.50000000E-01  8.50000000E-01
  8.50000000E-01  8.00000000E-01  8.50000000E-01  8.50000000E-01  8.50000000E-01
  8.00000000E-01  8.50000000E-01  8.50000000E-01  8.50000000E-01  8.00000000E-01
  8.50000000E-01  8.50000000E-01  8.50000000E-01  8.00000000E-01  8.50000000E-01
  8.50000000E-01  8.50000000E-01  8.00000000E-01  8.50000000E-01  8.50000000E-01
  8.50000000E-01  8.00000000E-01  8.50000000E-01  8.50000000E-01  8.50000000E-01
  8.00000000E-01  8.50000000E-01  8.50000000E-01  8.50000000E-01  8.00000000E-01
  8.50000000E-01  8.50000000E-01  8.50000000E-01  8.00000000E-01  8.50000000E-01
  8.50000000E-01  8.50000000E-01  8.00000000E-01  8.50000000E-01  8.50000000E-01
  8.50000000E-01  8.00000000E-01  8.50000000E-01  8.50000000E-01  8.50000000E-01
  8.00000000E-01  8.50000000E-01  8.50000000E-01  8.50000000E-01  8.00000000E-01
  8.50000000E-01  8.50000000E-01  8.50000000E-01  8.00000000E-01  8.50000000E-01
  8.50000000E-01  8.50000000E-01  8.00000000E-01  8.50000000E-01  8.50000000E-01
  8.50000000E-01  8.00000000E-01  8.50000000E-01  8.50000000E-01  8.50000000E-01
  8.00000000E-01  8.50000000E-01  8.50000000E-01  8.50000000E-01  8.00000000E-01
  8.50000000E-01  8.50000000E-01  8.50000000E-01  8.00000000E-01  8.50000000E-01
  8.50000000E-01  8.50000000E-01  8.00000000E-01  8.50000000E-01  8.50000000E-01
  8.50000000E-01  8.00000000E-01  8.50000000E-01  8.50000000E-01  8.50000000E-01
  8.00000000E-01  8.50000000E-01  8.50000000E-01  8.50000000E-01  8.00000000E-01
  8.50000000E-01  8.50000000E-01  8.50000000E-01  8.00000000E-01  8.50000000E-01
  8.50000000E-01  8.50000000E-01  8.00000000E-01  8.50000000E-01  8.50000000E-01
  8.50000000E-01  8.00000000E-01  8.50000000E-01  8.50000000E-01  8.50000000E-01
  8.00000000E-01  8.50000000E-01  8.50000000E-01  8.50000000E-01  8.00000000E-01
  8.50000000E-01  8.50000000E-01  8.50000000E-01  8.00000000E-01  8.50000000E-01
  8.50000000E-01  8.50000000E-01  8.00000000E-01  8.50000000E-01  8.50000000E-01
  8.50000000E-01  8.00000000E-01  8.50000000E-01  8.50000000E-01  8.50000000E-01
  8.00000000E-01  8.50000000E-01  8.50000000E-01  8.50000000E-01  8.00000000E-01
  8.50000000E-01  8.50000000E-01  8.50000000E-01  8.00000000E-01  8.50000000E-01
  8.50000000E-01  8.50000000E-01  8.00000000E-01  8.50000000E-01  8.50000000E-01
  8.50000000E-01  8.00000000E-01  8.50000000E-01  8.50000000E-01  8.50000000E-01
  8.00000000E-01  8.50000000E-01  8.50000000E-01  8.50000000E-01  8.00000000E-01
  8.50000000E-01  8.50000000E-01  8.50000000E-01  8.00000000E-01  8.50000000E-01
  8.50000000E-01  8.50000000E-01  8.00000000E-01  8.50000000E-01  8.50000000E-01
  8.50000000E-01  8.00000000E-01  8.50000000E-01  8.50000000E-01  8.50000000E-01
  8.00000000E-01  8.50000000E-01  8.50000000E-01  8.50000000E-01  8.00000000E-01
  8.50000000E-01  8.50000000E-01  8.50000000E-01  8.00000000E-01  8.50000000E-01
  8.50000000E-01  8.50000000E-01  8.00000000E-01  8.50000000E-01  8.50000000E-01
  8.50000000E-01  8.00000000E-01  8.50000000E-01  8.50000000E-01  8.50000000E-01
  8.00000000E-01  8.50000000E-01  8.50000000E-01  8.50000000E-01  8.00000000E-01
  8.50000000E-01  8.50000000E-01  8.50000000E-01  8.00000000E-01  8.50000000E-01
  8.50000000E-01  8.50000000E-01  8.00000000E-01  8.50000000E-01  8.50000000E-01
  8.50000000E-01  8.00000000E-01  8.50000000E-01  8.50000000E-01  8.50000000E-01
  8.00000000E-01  8.50000000E-01  8.50000000E-01  8.50000000E-01  8.00000000E-01
  8.50000000E-01  8.50000000E-01  8.50000000E-01  8.00000000E-01  8.50000000E-01
  8.50000000E-01  8.50000000E-01  8.00000000E-01  8.50000000E-01  8.50000000E-01
  8.50000000E-01  8.00000000E-01  8.50000000E-01  8.50000000E-01  8.50000000E-01
  8.00000000E-01  8.50000000E-01  8.50000000E-01  8.50000000E-01  8.00000000E-01
  8.50000000E-01  8.50000000E-01  8.50000000E-01  8.00000000E-01  8.50000000E-01
  8.50000000E-01  8.50000000E-01  8.00000000E-01  8.50000000E-01  8.50000000E-01
  8.50000000E-01  8.00000000E-01  8.50000000E-01  8.50000000E-01  8.50000000E-01
  8.00000000E-01  8.50000000E-01  8.50000000E-01  8.50000000E-01  8.00000000E-01
  8.50000000E-01  8.50000000E-01  8.50000000E-01  8.00000000E-01  8.50000000E-01
  8.50000000E-01  8.50000000E-01  8.00000000E-01  8.50000000E-01  8.50000000E-01
  8.50000000E-01  8.00000000E-01  8.50000000E-01  8.50000000E-01  8.50000000E-01
  8.00000000E-01  8.50000000E-01  8.50000000E-01  8.50000000E-01  8.00000000E-01
  8.50000000E-01  8.50000000E-01  8.50000000E-01  8.00000000E-01  8.50000000E-01
  8.50000000E-01  8.50000000E-01  8.00000000E-01  8.50000000E-01  8.50000000E-01
  8.50000000E-01  8.00000000E-01  8.50000000E-01  8.50000000E-01  8.50000000E-01
  8.00000000E-01  8.50000000E-01  8.50000000E-01  8.50000000E-01  8.00000000E-01
  8.50000000E-01  8.50000000E-01  8.50000000E-01  8.00000000E-01  8.50000000E-01
  8.50000000E-01  8.50000000E-01  8.00000000E-01  8.50000000E-01  8.50000000E-01
  8.50000000E-01  8.00000000E-01  8.50000000E-01  8.50000000E-01  8.50000000E-01
  8.00000000E-01  8.50000000E-01  8.50000000E-01  8.50000000E-01  8.00000000E-01
  8.50000000E-01  8.50000000E-01  8.50000000E-01  8.00000000E-01  8.50000000E-01
  8.50000000E-01  8.50000000E-01  8.00000000E-01  8.50000000E-01  8.50000000E-01
  8.50000000E-01  8.00000000E-01  8.50000000E-01  8.50000000E-01  8.50000000E-01
  8.00000000E-01  8.50000000E-01  8.50000000E-01  8.50000000E-01  8.00000000E-01
  8.50000000E-01  8.50000000E-01  8.50000000E-01  8.00000000E-01  8.50000000E-01
  8.50000000E-01  8.50000000E-01  8.00000000E-01  8.50000000E-01  8.50000000E-01
  8.50000000E-01  8.00000000E-01  8.50000000E-01  8.50000000E-01  8.50000000E-01
  8.00000000E-01  8.50000000E-01  8.50000000E-01  8.50000000E-01  8.00000000E-01
  8.50000000E-01  8.50000000E-01  8.50000000E-01  8.00000000E-01  8.50000000E-01
  8.50000000E-01  8.50000000E-01  8.00000000E-01  8.50000000E-01  8.50000000E-01
  8.50000000E-01  8.00000000E-01  8.50000000E-01  8.50000000E-01  8.50000000E-01
  8.00000000E-01  8.50000000E-01  8.50000000E-01  8.50000000E-01  8.00000000E-01
  8.50000000E-01  8.50000000E-01  8.50000000E-01  8.00000000E-01  8.50000000E-01
  8.50000000E-01  8.50000000E-01  8.00000000E-01  8.50000000E-01  8.50000000E-01
  8.50000000E-01  8.00000000E-01  8.50000000E-01  8.50000000E-01  8.50000000E-01
  8.00000000E-01  8.50000000E-01  8.50000000E-01  8.50000000E-01  8.00000000E-01
  8.50000000E-01  8.50000000E-01  8.50000000E-01  8.00000000E-01  8.50000000E-01
  8.50000000E-01  8.50000000E-01  8.00000000E-01  8.50000000E-01  8.50000000E-01
  8.50000000E-01  8.00000000E-01  8.50000000E-01  8.50000000E-01  8.50000000E-01
  8.00000000E-01  8.50000000E-01  8.50000000E-01  8.50000000E-01  8.00000000E-01
  8.50000000E-01  8.50000000E-01  8.50000000E-01  8.00000000E-01  8.50000000E-01
  8.50000000E-01  8.50000000E-01  8.00000000E-01  8.50000000E-01  8.50000000E-01
  8.50000000E-01  8.00000000E-01  8.50000000E-01  8.50000000E-01  8.50000000E-01
  8.00000000E-01  8.50000000E-01  8.50000000E-01  8.50000000E-01  8.00000000E-01
  8.50000000E-01  8.50000000E-01  8.50000000E-01  8.00000000E-01  8.50000000E-01
  8.50000000E-01  8.50000000E-01  8.00000000E-01  8.50000000E-01  8.50000000E-01
  8.50000000E-01  8.00000000E-01  8.50000000E-01  8.50000000E-01  8.50000000E-01
  8.00000000E-01  8.50000000E-01  8.50000000E-01  8.50000000E-01  8.00000000E-01
  8.50000000E-01  8.50000000E-01  8.50000000E-01  8.00000000E-01  8.50000000E-01
  8.50000000E-01  8.50000000E-01  8.00000000E-01  8.50000000E-01  8.50000000E-01
  8.50000000E-01  8.00000000E-01  8.50000000E-01  8.50000000E-01  8.50000000E-01
  8.00000000E-01  8.50000000E-01  8.50000000E-01  8.50000000E-01  8.00000000E-01
  8.50000000E-01  8.50000000E-01  8.50000000E-01  8.00000000E-01  8.50000000E-01
  8.50000000E-01  8.50000000E-01  8.00000000E-01  8.50000000E-01  8.50000000E-01
  8.50000000E-01  8.00000000E-01  8.50000000E-01  8.50000000E-01  8.50000000E-01
  8.00000000E-01  8.50000000E-01  8.50000000E-01  8.50000000E-01  8.00000000E-01
  8.50000000E-01  8.50000000E-01  8.50000000E-01  8.00000000E-01  8.50000000E-01
  8.50000000E-01  8.50000000E-01  8.00000000E-01  8.50000000E-01  8.50000000E-01
  8.50000000E-01  8.00000000E-01  8.50000000E-01  8.50000000E-01  8.50000000E-01
  8.00000000E-01  8.50000000E-01  8.50000000E-01  8.50000000E-01  8.00000000E-01
  8.50000000E-01  8.50000000E-01  8.50000000E-01  8.00000000E-01  8.50000000E-01
  8.50000000E-01  8.50000000E-01  8.00000000E-01  8.50000000E-01  8.50000000E-01
  8.50000000E-01  8.00000000E-01  8.50000000E-01  8.50000000E-01  8.50000000E-01
  8.00000000E-01  8.50000000E-01  8.50000000E-01  8.50000000E-01  8.00000000E-01
  8.50000000E-01  8.50000000E-01  8.50000000E-01  8.00000000E-01  8.50000000E-01
  8.50000000E-01  8.50000000E-01  8.00000000E-01  8.50000000E-01  8.50000000E-01
  8.50000000E-01  8.00000000E-01  8.50000000E-01  8.50000000E-01  8.50000000E-01
  8.00000000E-01  8.50000000E-01  8.50000000E-01  8.50000000E-01  8.00000000E-01
  8.50000000E-01  8.50000000E-01  8.50000000E-01  8.00000000E-01  8.50000000E-01
  8.50000000E-01  8.50000000E-01  8.00000000E-01  8.50000000E-01  8.50000000E-01
  8.50000000E-01  8.00000000E-01  8.50000000E-01  8.50000000E-01  8.50000000E-01
  8.00000000E-01  8.50000000E-01  8.50000000E-01  8.50000000E-01  8.00000000E-01
  8.50000000E-01  8.50000000E-01  8.50000000E-01  8.00000000E-01  8.50000000E-01
  8.50000000E-01  8.50000000E-01  8.00000000E-01  8.50000000E-01  8.50000000E-01
  8.50000000E-01  8.00000000E-01  8.50000000E-01  8.50000000E-01  8.50000000E-01
  8.00000000E-01  8.50000000E-01  8.50000000E-01  8.50000000E-01  8.00000000E-01
  8.50000000E-01  8.50000000E-01  8.50000000E-01  8.00000000E-01  8.50000000E-01
  8.50000000E-01  8.50000000E-01  8.00000000E-01  8.50000000E-01  8.50000000E-01
  8.50000000E-01  8.00000000E-01  8.50000000E-01  8.50000000E-01  8.50000000E-01
  8.00000000E-01  8.50000000E-01  8.50000000E-01  8.50000000E-01  8.00000000E-01
  8.50000000E-01  8.50000000E-01  8.50000000E-01  8.00000000E-01  8.50000000E-01
  8.50000000E-01  8.50000000E-01  8.00000000E-01  8.50000000E-01  8.50000000E-01
  8.50000000E-01  8.00000000E-01  8.50000000E-01  8.50000000E-01  8.50000000E-01
  8.00000000E-01  8.50000000E-01  8.50000000E-01  8.50000000E-01  8.00000000E-01
  8.50000000E-01  8.50000000E-01  8.50000000E-01  8.00000000E-01  8.50000000E-01
  8.50000000E-01  8.50000000E-01  8.00000000E-01  8.50000000E-01  8.50000000E-01
  8.50000000E-01  8.00000000E-01  8.50000000E-01  8.50000000E-01  8.50000000E-01
  8.00000000E-01  8.50000000E-01  8.50000000E-01  8.50000000E-01  8.00000000E-01
  8.50000000E-01  8.50000000E-01  8.50000000E-01  8.00000000E-01  8.50000000E-01
  8.50000000E-01  8.50000000E-01  8.00000000E-01  8.50000000E-01  8.50000000E-01
  8.50000000E-01  8.00000000E-01  8.50000000E-01  8.50000000E-01  8.50000000E-01
  8.00000000E-01  8.50000000E-01  8.50000000E-01  8.50000000E-01  8.00000000E-01
  8.50000000E-01  8.50000000E-01  8.50000000E-01  8.00000000E-01  8.50000000E-01
  8.50000000E-01  8.50000000E-01  8.00000000E-01  8.50000000E-01  8.50000000E-01
  8.50000000E-01  8.00000000E-01  8.50000000E-01  8.50000000E-01  8.50000000E-01
  8.00000000E-01  8.50000000E-01  8.50000000E-01  8.50000000E-01  8.00000000E-01
  8.50000000E-01  8.50000000E-01  8.50000000E-01  8.00000000E-01  8.50000000E-01
  8.50000000E-01  8.50000000E-01  8.00000000E-01  8.50000000E-01  8.50000000E-01
  8.50000000E-01  8.00000000E-01  8.50000000E-01  8.50000000E-01  8.50000000E-01
  8.00000000E-01  8.50000000E-01  8.50000000E-01  8.50000000E-01  8.00000000E-01
  8.50000000E-01  8.50000000E-01  8.50000000E-01  8.00000000E-01  8.50000000E-01
  8.50000000E-01  8.50000000E-01  8.00000000E-01  8.50000000E-01  8.50000000E-01
  8.50000000E-01  8.00000000E-01  8.50000000E-01  8.50000000E-01  8.50000000E-01
  8.00000000E-01  8.50000000E-01  8.50000000E-01  8.50000000E-01  8.00000000E-01
  8.50000000E-01  8.50000000E-01  8.50000000E-01  8.00000000E-01  8.50000000E-01
  8.50000000E-01  8.50000000E-01  8.00000000E-01  8.50000000E-01  8.50000000E-01
  8.50000000E-01  8.00000000E-01  8.50000000E-01  8.50000000E-01  8.50000000E-01
  8.00000000E-01  8.50000000E-01  8.50000000E-01  8.50000000E-01  8.00000000E-01
  8.50000000E-01  8.50000000E-01  8.50000000E-01  8.00000000E-01  8.50000000E-01
  8.50000000E-01  8.50000000E-01  8.00000000E-01  8.50000000E-01  8.50000000E-01
  8.50000000E-01  8.00000000E-01  8.50000000E-01  8.50000000E-01  8.50000000E-01
  8.00000000E-01  8.50000000E-01  8.50000000E-01  8.50000000E-01  8.00000000E-01
  8.50000000E-01  8.50000000E-01  8.50000000E-01  8.00000000E-01  8.50000000E-01
  8.50000000E-01  8.50000000E-01  8.00000000E-01  8.50000000E-01  8.50000000E-01
  8.50000000E-01  8.00000000E-01  8.50000000E-01  8.50000000E-01  8.50000000E-01
  8.00000000E-01  8.50000000E-01  8.50000000E-01  8.50000000E-01  8.00000000E-01
  8.50000000E-01  8.50000000E-01  8.50000000E-01  8.00000000E-01  8.50000000E-01
  8.50000000E-01  8.50000000E-01  8.00000000E-01  8.50000000E-01  8.50000000E-01
  8.50000000E-01  8.00000000E-01  8.50000000E-01  8.50000000E-01  8.50000000E-01
  8.00000000E-01  8.50000000E-01  8.50000000E-01  8.50000000E-01  8.00000000E-01
  8.50000000E-01  8.50000000E-01  8.50000000E-01  8.00000000E-01  8.50000000E-01
  8.50000000E-01  8.50000000E-01  8.00000000E-01  8.50000000E-01  8.50000000E-01
  8.50000000E-01  8.00000000E-01  8.50000000E-01  8.50000000E-01  8.50000000E-01
  8.00000000E-01  8.50000000E-01  8.50000000E-01  8.50000000E-01  8.00000000E-01
  8.50000000E-01  8.50000000E-01  8.50000000E-01  8.00000000E-01  8.50000000E-01
  8.50000000E-01  8.50000000E-01  8.00000000E-01  8.50000000E-01  8.50000000E-01
  8.50000000E-01  8.00000000E-01  8.50000000E-01  8.50000000E-01  8.50000000E-01
  8.00000000E-01  8.50000000E-01  8.50000000E-01  8.50000000E-01  8.00000000E-01
  8.50000000E-01  8.50000000E-01  8.50000000E-01  8.00000000E-01  8.50000000E-01
  8.50000000E-01  8.50000000E-01  8.00000000E-01  8.50000000E-01  8.50000000E-01
  8.50000000E-01  8.00000000E-01  8.50000000E-01  8.50000000E-01  8.50000000E-01
  8.00000000E-01  8.50000000E-01  8.50000000E-01  8.50000000E-01  8.00000000E-01
  8.50000000E-01  8.50000000E-01  8.50000000E-01  8.00000000E-01  8.50000000E-01
  8.50000000E-01  8.50000000E-01  8.00000000E-01  8.50000000E-01  8.50000000E-01
  8.50000000E-01  8.00000000E-01  8.50000000E-01  8.50000000E-01  8.50000000E-01
  8.00000000E-01  8.50000000E-01  8.50000000E-01  8.50000000E-01  8.00000000E-01
  8.50000000E-01  8.50000000E-01  8.50000000E-01  8.00000000E-01  8.50000000E-01
  8.50000000E-01  8.50000000E-01  8.00000000E-01  8.50000000E-01  8.50000000E-01
  8.50000000E-01  8.00000000E-01  8.50000000E-01  8.50000000E-01  8.50000000E-01
  8.00000000E-01  8.50000000E-01  8.50000000E-01  8.50000000E-01  8.00000000E-01
  8.50000000E-01  8.50000000E-01  8.50000000E-01  8.00000000E-01  8.50000000E-01
  8.50000000E-01  8.50000000E-01  8.00000000E-01  8.50000000E-01  8.50000000E-01
  8.50000000E-01  8.00000000E-01  8.50000000E-01  8.50000000E-01  8.50000000E-01
  8.00000000E-01  8.50000000E-01  8.50000000E-01  8.50000000E-01  8.00000000E-01
  8.50000000E-01  8.50000000E-01  8.50000000E-01  8.00000000E-01  8.50000000E-01
  8.50000000E-01  8.50000000E-01  8.00000000E-01  8.50000000E-01  8.50000000E-01
  8.50000000E-01  8.00000000E-01  8.50000000E-01  8.50000000E-01  8.50000000E-01
  8.00000000E-01  8.50000000E-01  8.50000000E-01  8.50000000E-01  8.00000000E-01
  8.50000000E-01  8.50000000E-01  8.50000000E-01  8.00000000E-01  8.50000000E-01
  8.50000000E-01  8.50000000E-01  8.00000000E-01  8.50000000E-01  8.50000000E-01
  8.50000000E-01  8.00000000E-01  8.50000000E-01  8.50000000E-01  8.50000000E-01
  8.00000000E-01  8.50000000E-01  8.50000000E-01  8.50000000E-01  8.00000000E-01
  8.50000000E-01  8.50000000E-01  8.50000000E-01  8.00000000E-01  8.50000000E-01
  8.50000000E-01  8.50000000E-01  8.00000000E-01  8.50000000E-01  8.50000000E-01
  8.50000000E-01  8.00000000E-01  8.50000000E-01  8.50000000E-01  8.50000000E-01
  8.00000000E-01  8.50000000E-01  8.50000000E-01  8.50000000E-01  8.00000000E-01
  8.50000000E-01  8.50000000E-01  8.50000000E-01  8.00000000E-01  8.50000000E-01
  8.50000000E-01  8.50000000E-01  8.00000000E-01  8.50000000E-01  8.50000000E-01
  8.50000000E-01  8.00000000E-01  8.50000000E-01  8.50000000E-01  8.50000000E-01
  8.00000000E-01  8.50000000E-01  8.50000000E-01  8.50000000E-01  8.00000000E-01
  8.50000000E-01  8.50000000E-01  8.50000000E-01  8.00000000E-01  8.50000000E-01
  8.50000000E-01  8.50000000E-01  8.00000000E-01  8.50000000E-01  8.50000000E-01
  8.50000000E-01  8.00000000E-01  8.50000000E-01  8.50000000E-01  8.50000000E-01
  8.00000000E-01  8.50000000E-01  8.50000000E-01  8.50000000E-01  8.00000000E-01
  8.50000000E-01  8.50000000E-01  8.50000000E-01  8.00000000E-01  8.50000000E-01
  8.50000000E-01  8.50000000E-01  8.00000000E-01  8.50000000E-01  8.50000000E-01
  8.50000000E-01  8.00000000E-01  8.50000000E-01  8.50000000E-01  8.50000000E-01
  8.00000000E-01  8.50000000E-01  8.50000000E-01  8.50000000E-01  8.00000000E-01
  8.50000000E-01  8.50000000E-01  8.50000000E-01  8.00000000E-01  8.50000000E-01
  8.50000000E-01  8.50000000E-01  8.00000000E-01  8.50000000E-01  8.50000000E-01
  8.50000000E-01  8.00000000E-01  8.50000000E-01  8.50000000E-01  8.50000000E-01
  8.00000000E-01  8.50000000E-01  8.50000000E-01  8.50000000E-01  8.00000000E-01
  8.50000000E-01  8.50000000E-01  8.50000000E-01  8.00000000E-01  8.50000000E-01
  8.50000000E-01  8.50000000E-01  8.00000000E-01  8.50000000E-01  8.50000000E-01
  8.50000000E-01  8.00000000E-01  8.50000000E-01  8.50000000E-01  8.50000000E-01
  8.00000000E-01  8.50000000E-01  8.50000000E-01  8.50000000E-01  8.00000000E-01
  8.50000000E-01  8.50000000E-01  8.50000000E-01  8.00000000E-01  8.50000000E-01
  8.50000000E-01  8.50000000E-01  8.00000000E-01  8.50000000E-01  8.50000000E-01
  8.50000000E-01  8.00000000E-01  8.50000000E-01  8.50000000E-01  8.50000000E-01
  8.00000000E-01  8.50000000E-01  8.50000000E-01  8.50000000E-01  8.00000000E-01
  8.50000000E-01  8.50000000E-01  8.50000000E-01  8.00000000E-01  8.50000000E-01
  8.50000000E-01  8.50000000E-01  8.00000000E-01  8.50000000E-01  8.50000000E-01
  8.50000000E-01  8.00000000E-01  8.50000000E-01  8.50000000E-01  8.50000000E-01
  8.00000000E-01  8.50000000E-01  8.50000000E-01  8.50000000E-01  8.00000000E-01
  8.50000000E-01  8.50000000E-01  8.50000000E-01  8.00000000E-01  8.50000000E-01
  8.50000000E-01  8.50000000E-01  8.00000000E-01  8.50000000E-01  8.50000000E-01
  8.50000000E-01  8.00000000E-01  8.50000000E-01  8.50000000E-01  8.50000000E-01
  8.00000000E-01  8.50000000E-01  8.50000000E-01  8.50000000E-01  8.00000000E-01
  8.50000000E-01  8.50000000E-01  8.50000000E-01  8.00000000E-01  8.50000000E-01
  8.50000000E-01  8.50000000E-01  8.00000000E-01  8.50000000E-01  8.50000000E-01
  8.50000000E-01  8.00000000E-01  8.50000000E-01  8.50000000E-01  8.50000000E-01
  8.00000000E-01  8.50000000E-01  8.50000000E-01  8.50000000E-01  8.00000000E-01
  8.50000000E-01  8.50000000E-01  8.50000000E-01  8.00000000E-01  8.50000000E-01
  8.50000000E-01  8.50000000E-01  8.00000000E-01  8.50000000E-01  8.50000000E-01
  8.50000000E-01  8.00000000E-01  8.50000000E-01  8.50000000E-01  8.50000000E-01
  8.00000000E-01  8.50000000E-01  8.50000000E-01  8.50000000E-01  8.00000000E-01
  8.50000000E-01  8.50000000E-01  8.50000000E-01  8.00000000E-01  8.50000000E-01
  8.50000000E-01  8.50000000E-01  8.00000000E-01  8.50000000E-01  8.50000000E-01
  8.50000000E-01  8.00000000E-01  8.50000000E-01  8.50000000E-01  8.50000000E-01
  8.00000000E-01  8.50000000E-01  8.50000000E-01  8.50000000E-01  8.00000000E-01
  8.50000000E-01  8.50000000E-01  8.50000000E-01  8.00000000E-01  8.50000000E-01
  8.50000000E-01  8.50000000E-01  8.00000000E-01  8.50000000E-01  8.50000000E-01
  8.50000000E-01  8.00000000E-01  8.50000000E-01  8.50000000E-01  8.50000000E-01
  8.00000000E-01  8.50000000E-01  8.50000000E-01  8.50000000E-01  8.00000000E-01
  8.50000000E-01  8.50000000E-01  8.50000000E-01  8.00000000E-01  8.50000000E-01
  8.50000000E-01  8.50000000E-01  8.00000000E-01  8.50000000E-01  8.50000000E-01
  8.50000000E-01  8.00000000E-01  8.50000000E-01  8.50000000E-01  8.50000000E-01
  8.00000000E-01  8.50000000E-01  8.50000000E-01  8.50000000E-01  8.00000000E-01
  8.50000000E-01  8.50000000E-01  8.50000000E-01  8.00000000E-01  8.50000000E-01
  8.50000000E-01  8.50000000E-01  8.00000000E-01  8.50000000E-01  8.50000000E-01
  8.50000000E-01  8.00000000E-01  8.50000000E-01  8.50000000E-01  8.50000000E-01
  8.00000000E-01  8.50000000E-01  8.50000000E-01  8.50000000E-01  8.00000000E-01
  8.50000000E-01  8.50000000E-01  8.50000000E-01  8.00000000E-01  8.50000000E-01
  8.50000000E-01  8.50000000E-01  8.00000000E-01  8.50000000E-01  8.50000000E-01
  8.50000000E-01  8.00000000E-01  8.50000000E-01  8.50000000E-01  8.50000000E-01
  8.00000000E-01  8.50000000E-01  8.50000000E-01  8.50000000E-01  8.00000000E-01
  8.50000000E-01  8.50000000E-01  8.50000000E-01  8.00000000E-01  8.50000000E-01
  8.50000000E-01  8.50000000E-01  8.00000000E-01  8.50000000E-01  8.50000000E-01
  8.50000000E-01  8.00000000E-01  8.50000000E-01  8.50000000E-01  8.50000000E-01
  8.00000000E-01  8.50000000E-01  8.50000000E-01  8.50000000E-01  8.00000000E-01
  8.50000000E-01  8.50000000E-01  8.50000000E-01  8.00000000E-01  8.50000000E-01
  8.50000000E-01  8.50000000E-01  8.00000000E-01  8.50000000E-01  8.50000000E-01
  8.50000000E-01  8.00000000E-01  8.50000000E-01  8.50000000E-01  8.50000000E-01
  8.00000000E-01  8.50000000E-01  8.50000000E-01  8.50000000E-01  8.00000000E-01
  8.50000000E-01  8.50000000E-01  8.50000000E-01  8.00000000E-01  8.50000000E-01
  8.50000000E-01  8.50000000E-01  8.00000000E-01  8.50000000E-01  8.50000000E-01
  8.50000000E-01  8.00000000E-01  8.50000000E-01  8.50000000E-01  8.50000000E-01
  8.00000000E-01  8.50000000E-01  8.50000000E-01  8.50000000E-01  8.00000000E-01
  8.50000000E-01  8.50000000E-01  8.50000000E-01  8.00000000E-01  8.50000000E-01
  8.50000000E-01  8.50000000E-01  8.00000000E-01  8.50000000E-01  8.50000000E-01
  8.50000000E-01  8.00000000E-01  8.50000000E-01  8.50000000E-01  8.50000000E-01
  8.00000000E-01  8.50000000E-01  8.50000000E-01  8.50000000E-01  8.00000000E-01
  8.50000000E-01  8.50000000E-01  8.50000000E-01  8.00000000E-01  8.50000000E-01
  8.50000000E-01  8.50000000E-01  8.00000000E-01  8.50000000E-01  8.50000000E-01
  8.50000000E-01  8.00000000E-01  8.50000000E-01  8.50000000E-01  8.50000000E-01
  8.00000000E-01  8.50000000E-01  8.50000000E-01  8.50000000E-01  8.00000000E-01
  8.50000000E-01  8.50000000E-01  8.50000000E-01  8.00000000E-01  8.50000000E-01
  8.50000000E-01  8.50000000E-01  8.00000000E-01  8.50000000E-01  8.50000000E-01
  8.50000000E-01  8.00000000E-01  8.50000000E-01  8.50000000E-01  8.50000000E-01
  8.00000000E-01  8.50000000E-01  8.50000000E-01  8.50000000E-01  8.00000000E-01
  8.50000000E-01  8.50000000E-01  8.50000000E-01  8.00000000E-01  8.50000000E-01
  8.50000000E-01  8.50000000E-01  8.00000000E-01  8.50000000E-01  8.50000000E-01
  8.50000000E-01  8.00000000E-01  8.50000000E-01  8.50000000E-01  8.50000000E-01
  8.00000000E-01  8.50000000E-01  8.50000000E-01  8.50000000E-01  8.00000000E-01
  8.50000000E-01  8.50000000E-01  8.50000000E-01  8.00000000E-01  8.50000000E-01
  8.50000000E-01  8.50000000E-01  8.00000000E-01  8.50000000E-01  8.50000000E-01
  8.50000000E-01  8.00000000E-01  8.50000000E-01  8.50000000E-01  8.50000000E-01
  8.00000000E-01  8.50000000E-01  8.50000000E-01  8.50000000E-01  8.00000000E-01
  8.50000000E-01  8.50000000E-01  8.50000000E-01  8.00000000E-01  8.50000000E-01
  8.50000000E-01  8.50000000E-01  8.00000000E-01  8.50000000E-01  8.50000000E-01
  8.50000000E-01  8.00000000E-01  8.50000000E-01  8.50000000E-01  8.50000000E-01
  8.00000000E-01  8.50000000E-01  8.50000000E-01  8.50000000E-01  8.00000000E-01
  8.50000000E-01  8.50000000E-01  8.50000000E-01  8.00000000E-01  8.50000000E-01
  8.50000000E-01  8.50000000E-01  8.00000000E-01  8.50000000E-01  8.50000000E-01
  8.50000000E-01  8.00000000E-01  8.50000000E-01  8.50000000E-01  8.50000000E-01
  8.00000000E-01  8.50000000E-01  8.50000000E-01  8.50000000E-01  8.00000000E-01
  8.50000000E-01  8.50000000E-01  8.50000000E-01  8.00000000E-01  8.50000000E-01
  8.50000000E-01  8.50000000E-01  8.00000000E-01  8.50000000E-01  8.50000000E-01
  8.50000000E-01  8.00000000E-01  8.50000000E-01  8.50000000E-01  8.50000000E-01
  8.00000000E-01  8.50000000E-01  8.50000000E-01  8.50000000E-01  8.00000000E-01
  8.50000000E-01  8.50000000E-01  8.50000000E-01  8.00000000E-01  8.50000000E-01
  8.50000000E-01  8.50000000E-01  8.00000000E-01  8.50000000E-01  8.50000000E-01
  8.50000000E-01  8.00000000E-01  8.50000000E-01  8.50000000E-01  8.50000000E-01
  8.00000000E-01  8.50000000E-01  8.50000000E-01  8.50000000E-01  8.00000000E-01
  8.50000000E-01  8.50000000E-01  8.50000000E-01  8.00000000E-01  8.50000000E-01
  8.50000000E-01  8.50000000E-01  8.00000000E-01  8.50000000E-01  8.50000000E-01
  8.50000000E-01  8.00000000E-01  8.50000000E-01  8.50000000E-01  8.50000000E-01
  8.00000000E-01  8.50000000E-01  8.50000000E-01  8.50000000E-01  8.00000000E-01
  8.50000000E-01  8.50000000E-01  8.50000000E-01  8.00000000E-01  8.50000000E-01
  8.50000000E-01  8.50000000E-01  8.00000000E-01  8.50000000E-01  8.50000000E-01
  8.50000000E-01  8.00000000E-01  8.50000000E-01  8.50000000E-01  8.50000000E-01
  8.00000000E-01  8.50000000E-01  8.50000000E-01  8.50000000E-01  8.00000000E-01
  8.50000000E-01  8.50000000E-01  8.50000000E-01  8.00000000E-01  8.50000000E-01
  8.50000000E-01  8.50000000E-01  8.00000000E-01  8.50000000E-01  8.50000000E-01
  8.50000000E-01  8.00000000E-01  8.50000000E-01  8.50000000E-01  8.50000000E-01
  8.00000000E-01  8.50000000E-01  8.50000000E-01  8.50000000E-01  8.00000000E-01
  8.50000000E-01  8.50000000E-01  8.50000000E-01  8.00000000E-01  8.50000000E-01
  8.50000000E-01  8.50000000E-01  8.00000000E-01  8.50000000E-01  8.50000000E-01
  8.50000000E-01  8.00000000E-01  8.50000000E-01  8.50000000E-01  8.50000000E-01
  8.00000000E-01  8.50000000E-01  8.50000000E-01  8.50000000E-01  8.00000000E-01
  8.50000000E-01  8.50000000E-01  8.50000000E-01  8.00000000E-01  8.50000000E-01
  8.50000000E-01  8.50000000E-01  8.00000000E-01  8.50000000E-01  8.50000000E-01
  8.50000000E-01  8.00000000E-01  8.50000000E-01  8.50000000E-01  8.50000000E-01
  8.00000000E-01  8.50000000E-01  8.50000000E-01  8.50000000E-01  8.00000000E-01
  8.50000000E-01  8.50000000E-01  8.50000000E-01  8.00000000E-01  8.50000000E-01
  8.50000000E-01  8.50000000E-01  8.00000000E-01  8.50000000E-01  8.50000000E-01
  8.50000000E-01  8.00000000E-01  8.50000000E-01  8.50000000E-01  8.50000000E-01
  8.00000000E-01  8.50000000E-01  8.50000000E-01  8.50000000E-01  8.00000000E-01
  8.50000000E-01  8.50000000E-01  8.50000000E-01  8.00000000E-01  8.50000000E-01
  8.50000000E-01  8.50000000E-01  8.00000000E-01  8.50000000E-01  8.50000000E-01
  8.50000000E-01  8.00000000E-01  8.50000000E-01  8.50000000E-01  8.50000000E-01
  8.00000000E-01  8.50000000E-01  8.50000000E-01  8.50000000E-01  8.00000000E-01
  8.50000000E-01  8.50000000E-01  8.50000000E-01  8.00000000E-01  8.50000000E-01
  8.50000000E-01  8.50000000E-01  8.00000000E-01  8.50000000E-01  8.50000000E-01
  8.50000000E-01  8.00000000E-01  8.50000000E-01  8.50000000E-01  8.50000000E-01
  8.00000000E-01  8.50000000E-01  8.50000000E-01  8.50000000E-01  8.00000000E-01
  8.50000000E-01  8.50000000E-01  8.50000000E-01  8.00000000E-01  8.50000000E-01
  8.50000000E-01  8.50000000E-01  8.00000000E-01  8.50000000E-01  8.50000000E-01
  8.50000000E-01  8.00000000E-01  8.50000000E-01  8.50000000E-01  8.50000000E-01
  8.00000000E-01  8.50000000E-01  8.50000000E-01  8.50000000E-01  8.00000000E-01
  8.50000000E-01  8.50000000E-01  8.50000000E-01  8.00000000E-01  8.50000000E-01
  8.50000000E-01  8.50000000E-01  8.00000000E-01  8.50000000E-01  8.50000000E-01
  8.50000000E-01  8.00000000E-01  8.50000000E-01  8.50000000E-01  8.50000000E-01
  8.00000000E-01  8.50000000E-01  8.50000000E-01  8.50000000E-01  8.00000000E-01
  8.50000000E-01  8.50000000E-01  8.50000000E-01  8.00000000E-01  8.50000000E-01
  8.50000000E-01  8.50000000E-01  8.00000000E-01  8.50000000E-01  8.50000000E-01
  8.50000000E-01  8.00000000E-01  8.50000000E-01  8.50000000E-01  8.50000000E-01
  8.00000000E-01  8.50000000E-01  8.50000000E-01  8.50000000E-01  8.00000000E-01
  8.50000000E-01  8.50000000E-01  8.50000000E-01  8.00000000E-01  8.50000000E-01
  8.50000000E-01  8.50000000E-01  8.00000000E-01  8.50000000E-01  8.50000000E-01
  8.50000000E-01  8.00000000E-01  8.50000000E-01  8.50000000E-01  8.50000000E-01
  8.00000000E-01  8.50000000E-01  8.50000000E-01  8.50000000E-01  8.00000000E-01
  8.50000000E-01  8.50000000E-01  8.50000000E-01  8.00000000E-01  8.50000000E-01
  8.50000000E-01  8.50000000E-01  8.00000000E-01  8.50000000E-01  8.50000000E-01
  8.50000000E-01  8.00000000E-01  8.50000000E-01  8.50000000E-01  8.50000000E-01
  8.00000000E-01  8.50000000E-01  8.50000000E-01  8.50000000E-01  8.00000000E-01
  8.50000000E-01  8.50000000E-01  8.50000000E-01  8.00000000E-01  8.50000000E-01
  8.50000000E-01  8.50000000E-01  8.00000000E-01  8.50000000E-01  8.50000000E-01
  8.50000000E-01  8.00000000E-01  8.50000000E-01  8.50000000E-01  8.50000000E-01
  8.00000000E-01  8.50000000E-01  8.50000000E-01  8.50000000E-01  8.00000000E-01
  8.50000000E-01  8.50000000E-01  8.50000000E-01  8.00000000E-01  8.50000000E-01
  8.50000000E-01  8.50000000E-01  8.00000000E-01  8.50000000E-01  8.50000000E-01
  8.50000000E-01  8.00000000E-01  8.50000000E-01  8.50000000E-01  8.50000000E-01
  8.00000000E-01  8.50000000E-01  8.50000000E-01  8.50000000E-01  8.00000000E-01
  8.50000000E-01  8.50000000E-01  8.50000000E-01  8.00000000E-01  8.50000000E-01
  8.50000000E-01  8.50000000E-01  8.00000000E-01  8.50000000E-01  8.50000000E-01
  8.50000000E-01  8.00000000E-01  8.50000000E-01  8.50000000E-01  8.50000000E-01
  8.00000000E-01  8.50000000E-01  8.50000000E-01  8.50000000E-01  8.00000000E-01
  8.50000000E-01  8.50000000E-01  8.50000000E-01  8.00000000E-01  8.50000000E-01
  8.50000000E-01  8.50000000E-01  8.00000000E-01  8.50000000E-01  8.50000000E-01
  8.50000000E-01  8.00000000E-01  8.50000000E-01  8.50000000E-01  8.50000000E-01
  8.00000000E-01  8.50000000E-01  8.50000000E-01  8.50000000E-01  8.00000000E-01
  8.50000000E-01  8.50000000E-01  8.50000000E-01  8.00000000E-01  8.50000000E-01
  8.50000000E-01  8.50000000E-01  8.00000000E-01  8.50000000E-01  8.50000000E-01
  8.50000000E-01  8.00000000E-01  8.50000000E-01  8.50000000E-01  8.50000000E-01
  8.00000000E-01  8.50000000E-01  8.50000000E-01  8.50000000E-01  8.00000000E-01
  8.50000000E-01  8.50000000E-01  8.50000000E-01  8.00000000E-01  8.50000000E-01
  8.50000000E-01  8.50000000E-01  8.00000000E-01  8.50000000E-01  8.50000000E-01
  8.50000000E-01  8.00000000E-01  8.50000000E-01  8.50000000E-01  8.50000000E-01
  8.00000000E-01  8.50000000E-01  8.50000000E-01  8.50000000E-01  8.00000000E-01
  8.50000000E-01  8.50000000E-01  8.50000000E-01  8.00000000E-01  8.50000000E-01
  8.50000000E-01  8.50000000E-01  8.00000000E-01  8.50000000E-01  8.50000000E-01
  8.50000000E-01  8.00000000E-01  8.50000000E-01  8.50000000E-01  8.50000000E-01
  8.00000000E-01  8.50000000E-01  8.50000000E-01  8.50000000E-01  8.00000000E-01
  8.50000000E-01  8.50000000E-01  8.50000000E-01  8.00000000E-01  8.50000000E-01
  8.50000000E-01  8.50000000E-01  8.00000000E-01  8.50000000E-01  8.50000000E-01
  8.50000000E-01  8.00000000E-01  8.50000000E-01  8.50000000E-01  8.50000000E-01
  8.00000000E-01  8.50000000E-01  8.50000000E-01  8.50000000E-01  8.00000000E-01
  8.50000000E-01  8.50000000E-01  8.50000000E-01  8.00000000E-01  8.50000000E-01
  8.50000000E-01  8.50000000E-01  8.00000000E-01  8.50000000E-01  8.50000000E-01
  8.50000000E-01  8.00000000E-01  8.50000000E-01  8.50000000E-01  8.50000000E-01
  8.00000000E-01  8.50000000E-01  8.50000000E-01  8.50000000E-01  8.00000000E-01
  8.50000000E-01  8.50000000E-01  8.50000000E-01  8.00000000E-01  8.50000000E-01
  8.50000000E-01  8.50000000E-01  8.00000000E-01  8.50000000E-01  8.50000000E-01
  8.50000000E-01  8.00000000E-01  8.50000000E-01  8.50000000E-01  8.50000000E-01
  8.00000000E-01  8.50000000E-01  8.50000000E-01  8.50000000E-01  8.00000000E-01
  8.50000000E-01  8.50000000E-01  8.50000000E-01  8.00000000E-01  8.50000000E-01
  8.50000000E-01  8.50000000E-01  8.00000000E-01  8.50000000E-01  8.50000000E-01
  8.50000000E-01  8.00000000E-01  8.50000000E-01  8.50000000E-01  8.50000000E-01
  8.00000000E-01  8.50000000E-01  8.50000000E-01  8.50000000E-01  8.00000000E-01
  8.50000000E-01  8.50000000E-01  8.50000000E-01  8.00000000E-01  8.50000000E-01
  8.50000000E-01  8.50000000E-01  8.00000000E-01  8.50000000E-01  8.50000000E-01
  8.50000000E-01  8.00000000E-01  8.50000000E-01  8.50000000E-01  8.50000000E-01
  8.00000000E-01  8.50000000E-01  8.50000000E-01  8.50000000E-01  8.00000000E-01
  8.50000000E-01  8.50000000E-01  8.50000000E-01  8.00000000E-01  8.50000000E-01
  8.50000000E-01  8.50000000E-01  8.00000000E-01  8.50000000E-01  8.50000000E-01
  8.50000000E-01  8.00000000E-01  8.50000000E-01  8.50000000E-01  8.50000000E-01
  8.00000000E-01  8.50000000E-01  8.50000000E-01  8.50000000E-01  8.00000000E-01
  8.50000000E-01  8.50000000E-01  8.50000000E-01  8.00000000E-01  8.50000000E-01
  8.50000000E-01  8.50000000E-01  8.00000000E-01  8.50000000E-01  8.50000000E-01
  8.50000000E-01  8.00000000E-01  8.50000000E-01  8.50000000E-01  8.50000000E-01
  8.00000000E-01  8.50000000E-01  8.50000000E-01  8.50000000E-01  8.00000000E-01
  8.50000000E-01  8.50000000E-01  8.50000000E-01  8.00000000E-01  8.50000000E-01
  8.50000000E-01  8.50000000E-01  8.00000000E-01  8.50000000E-01  8.50000000E-01
  8.50000000E-01  8.00000000E-01  8.50000000E-01  8.50000000E-01  8.50000000E-01
  8.00000000E-01  8.50000000E-01  8.50000000E-01  8.50000000E-01  8.00000000E-01
  8.50000000E-01  8.50000000E-01  8.50000000E-01  8.00000000E-01  8.50000000E-01
  8.50000000E-01  8.50000000E-01  8.00000000E-01  8.50000000E-01  8.50000000E-01
  8.50000000E-01  8.00000000E-01  8.50000000E-01  8.50000000E-01  8.50000000E-01
  8.00000000E-01  8.50000000E-01  8.50000000E-01  8.50000000E-01  8.00000000E-01
  8.50000000E-01  8.50000000E-01  8.50000000E-01  8.00000000E-01  8.50000000E-01
  8.50000000E-01  8.50000000E-01  8.00000000E-01  8.50000000E-01  8.50000000E-01
  8.50000000E-01  8.00000000E-01  8.50000000E-01  8.50000000E-01  8.50000000E-01
  8.00000000E-01  8.50000000E-01  8.50000000E-01  8.50000000E-01  8.00000000E-01
  8.50000000E-01  8.50000000E-01  8.50000000E-01  8.00000000E-01  8.50000000E-01
  8.50000000E-01  8.50000000E-01  8.00000000E-01  8.50000000E-01  8.50000000E-01
  8.50000000E-01  8.00000000E-01  8.50000000E-01  8.50000000E-01  8.50000000E-01
  8.00000000E-01  8.50000000E-01  8.50000000E-01  8.50000000E-01  8.00000000E-01
  8.50000000E-01  8.50000000E-01  8.50000000E-01  8.00000000E-01  8.50000000E-01
  8.50000000E-01  8.50000000E-01  8.00000000E-01  8.50000000E-01  8.50000000E-01
  8.50000000E-01  8.00000000E-01  8.50000000E-01  8.50000000E-01  8.50000000E-01
  8.00000000E-01  8.50000000E-01  8.50000000E-01  8.50000000E-01  8.00000000E-01
  8.50000000E-01  8.50000000E-01  8.50000000E-01  8.00000000E-01  8.50000000E-01
  8.50000000E-01  8.50000000E-01  8.00000000E-01  8.50000000E-01  8.50000000E-01
  8.50000000E-01  8.00000000E-01  8.50000000E-01  8.50000000E-01  8.50000000E-01
  8.00000000E-01  8.50000000E-01  8.50000000E-01  8.50000000E-01  8.00000000E-01
  8.50000000E-01  8.50000000E-01  8.50000000E-01  8.00000000E-01  8.50000000E-01
  8.50000000E-01  8.50000000E-01  8.00000000E-01  8.50000000E-01  8.50000000E-01
  8.50000000E-01  8.00000000E-01  8.50000000E-01  8.50000000E-01  8.50000000E-01
  8.00000000E-01  8.50000000E-01  8.50000000E-01  8.50000000E-01  8.00000000E-01
  8.50000000E-01  8.50000000E-01  8.50000000E-01  8.00000000E-01  8.50000000E-01
  8.50000000E-01  8.50000000E-01  8.00000000E-01  8.50000000E-01  8.50000000E-01
  8.50000000E-01  8.00000000E-01  8.50000000E-01  8.50000000E-01  8.50000000E-01
  8.00000000E-01  8.50000000E-01  8.50000000E-01  8.50000000E-01  8.00000000E-01
  8.50000000E-01  8.50000000E-01  8.50000000E-01  8.00000000E-01  8.50000000E-01
  8.50000000E-01  8.50000000E-01  8.00000000E-01  8.50000000E-01  8.50000000E-01
  8.50000000E-01  8.00000000E-01  8.50000000E-01  8.50000000E-01  8.50000000E-01
  8.00000000E-01  8.50000000E-01  8.50000000E-01  8.50000000E-01  8.00000000E-01
  8.50000000E-01  8.50000000E-01  8.50000000E-01  8.00000000E-01  8.50000000E-01
  8.50000000E-01  8.50000000E-01  8.00000000E-01  8.50000000E-01  8.50000000E-01
  8.50000000E-01  8.00000000E-01  8.50000000E-01  8.50000000E-01  8.50000000E-01
  8.00000000E-01  8.50000000E-01  8.50000000E-01  8.50000000E-01  8.00000000E-01
  8.50000000E-01  8.50000000E-01  8.50000000E-01  8.00000000E-01  8.50000000E-01
  8.50000000E-01  8.50000000E-01  8.00000000E-01  8.50000000E-01  8.50000000E-01
  8.50000000E-01  8.00000000E-01  8.50000000E-01  8.50000000E-01  8.50000000E-01
  8.00000000E-01  8.50000000E-01  8.50000000E-01  8.50000000E-01  8.00000000E-01
  8.50000000E-01  8.50000000E-01  8.50000000E-01  8.00000000E-01  8.50000000E-01
  8.50000000E-01  8.50000000E-01  8.00000000E-01  8.50000000E-01  8.50000000E-01
  8.50000000E-01  8.00000000E-01  8.50000000E-01  8.50000000E-01  8.50000000E-01
  8.00000000E-01  8.50000000E-01  8.50000000E-01  8.50000000E-01  8.00000000E-01
  8.50000000E-01  8.50000000E-01  8.50000000E-01  8.00000000E-01  8.50000000E-01
  8.50000000E-01  8.50000000E-01  8.00000000E-01  8.50000000E-01  8.50000000E-01
  8.50000000E-01  8.00000000E-01  8.50000000E-01  8.50000000E-01  8.50000000E-01
  8.00000000E-01  8.50000000E-01  8.50000000E-01  8.50000000E-01  8.00000000E-01
  8.50000000E-01  8.50000000E-01  8.50000000E-01  8.00000000E-01  8.50000000E-01
  8.50000000E-01  8.50000000E-01  8.00000000E-01  8.50000000E-01  8.50000000E-01
  8.50000000E-01  8.00000000E-01  8.50000000E-01  8.50000000E-01  8.50000000E-01
  8.00000000E-01  8.50000000E-01  8.50000000E-01  8.50000000E-01  8.00000000E-01
  8.50000000E-01  8.50000000E-01  8.50000000E-01  8.00000000E-01  8.50000000E-01
  8.50000000E-01  8.50000000E-01  8.00000000E-01  8.50000000E-01  8.50000000E-01
  8.50000000E-01  8.00000000E-01  8.50000000E-01  8.50000000E-01  8.50000000E-01
  8.00000000E-01  8.50000000E-01  8.50000000E-01  8.50000000E-01  8.00000000E-01
  8.50000000E-01  8.50000000E-01  8.50000000E-01  8.00000000E-01  8.50000000E-01
  8.50000000E-01  8.50000000E-01  8.00000000E-01  8.50000000E-01  8.50000000E-01
  8.50000000E-01  8.00000000E-01  8.50000000E-01  8.50000000E-01  8.50000000E-01
  8.00000000E-01  8.50000000E-01  8.50000000E-01  8.50000000E-01  8.00000000E-01
  8.50000000E-01  8.50000000E-01  8.50000000E-01  8.00000000E-01  8.50000000E-01
  8.50000000E-01  8.50000000E-01  8.00000000E-01  8.50000000E-01  8.50000000E-01
  8.50000000E-01  8.00000000E-01  8.50000000E-01  8.50000000E-01  8.50000000E-01
  8.00000000E-01  8.50000000E-01  8.50000000E-01  8.50000000E-01  8.00000000E-01
  8.50000000E-01  8.50000000E-01  8.50000000E-01  8.00000000E-01  8.50000000E-01
  8.50000000E-01  8.50000000E-01  8.00000000E-01  8.50000000E-01  8.50000000E-01
  8.50000000E-01  8.00000000E-01  8.50000000E-01  8.50000000E-01  8.50000000E-01
  8.00000000E-01  8.50000000E-01  8.50000000E-01  8.50000000E-01  8.00000000E-01
  8.50000000E-01  8.50000000E-01  8.50000000E-01  8.00000000E-01  8.50000000E-01
  8.50000000E-01  8.50000000E-01  8.00000000E-01  8.50000000E-01  8.50000000E-01
  8.50000000E-01  8.00000000E-01  8.50000000E-01  8.50000000E-01  8.50000000E-01
  8.00000000E-01  8.50000000E-01  8.50000000E-01  8.50000000E-01  8.00000000E-01
  8.50000000E-01  8.50000000E-01  8.50000000E-01  8.00000000E-01  8.50000000E-01
  8.50000000E-01  8.50000000E-01  8.00000000E-01  8.50000000E-01  8.50000000E-01
  8.50000000E-01  8.00000000E-01  8.50000000E-01  8.50000000E-01  8.50000000E-01
  8.00000000E-01  8.50000000E-01  8.50000000E-01  8.50000000E-01  8.00000000E-01
  8.50000000E-01  8.50000000E-01  8.50000000E-01  8.00000000E-01  8.50000000E-01
  8.50000000E-01  8.50000000E-01  8.00000000E-01  8.50000000E-01  8.50000000E-01
  8.50000000E-01  8.00000000E-01  8.50000000E-01  8.50000000E-01  8.50000000E-01
  8.00000000E-01  8.50000000E-01  8.50000000E-01  8.50000000E-01  8.00000000E-01
  8.50000000E-01  8.50000000E-01  8.50000000E-01  8.00000000E-01  8.50000000E-01
  8.50000000E-01  8.50000000E-01  8.00000000E-01  8.50000000E-01  8.50000000E-01
  8.50000000E-01  8.00000000E-01  8.50000000E-01  8.50000000E-01  8.50000000E-01
  8.00000000E-01  8.50000000E-01  8.50000000E-01  8.50000000E-01  8.00000000E-01
  8.50000000E-01  8.50000000E-01  8.50000000E-01  8.00000000E-01  8.50000000E-01
  8.50000000E-01  8.50000000E-01  8.00000000E-01  8.50000000E-01  8.50000000E-01
  8.50000000E-01  8.00000000E-01  8.50000000E-01  8.50000000E-01  8.50000000E-01
  8.00000000E-01  8.50000000E-01  8.50000000E-01  8.50000000E-01  8.00000000E-01
  8.50000000E-01  8.50000000E-01  8.50000000E-01  8.00000000E-01  8.50000000E-01
  8.50000000E-01  8.50000000E-01  8.00000000E-01  8.50000000E-01  8.50000000E-01
  8.50000000E-01  8.00000000E-01  8.50000000E-01  8.50000000E-01  8.50000000E-01
  8.00000000E-01  8.50000000E-01  8.50000000E-01  8.50000000E-01  8.00000000E-01
  8.50000000E-01  8.50000000E-01  8.50000000E-01  8.00000000E-01  8.50000000E-01
  8.50000000E-01  8.50000000E-01  8.00000000E-01  8.50000000E-01  8.50000000E-01
  8.50000000E-01  8.00000000E-01  8.50000000E-01  8.50000000E-01  8.50000000E-01
  8.00000000E-01  8.50000000E-01  8.50000000E-01  8.50000000E-01  8.00000000E-01
  8.50000000E-01  8.50000000E-01  8.50000000E-01  8.00000000E-01  8.50000000E-01
  8.50000000E-01  8.50000000E-01  8.00000000E-01  8.50000000E-01  8.50000000E-01
  8.50000000E-01  8.00000000E-01  8.50000000E-01  8.50000000E-01  8.50000000E-01
  8.00000000E-01  8.50000000E-01  8.50000000E-01  8.50000000E-01  8.00000000E-01
  8.50000000E-01  8.50000000E-01  8.50000000E-01  8.00000000E-01  8.50000000E-01
  8.50000000E-01  8.50000000E-01  8.00000000E-01  8.50000000E-01  8.50000000E-01
  8.50000000E-01  8.00000000E-01  8.50000000E-01  8.50000000E-01  8.50000000E-01
  8.00000000E-01  8.50000000E-01  8.50000000E-01  8.50000000E-01  8.00000000E-01
  8.50000000E-01  8.50000000E-01  8.50000000E-01  8.00000000E-01  8.50000000E-01
  8.50000000E-01  8.50000000E-01  8.00000000E-01  8.50000000E-01  8.50000000E-01
  8.50000000E-01  8.00000000E-01  8.50000000E-01  8.50000000E-01  8.50000000E-01
  8.00000000E-01  8.50000000E-01  8.50000000E-01  8.50000000E-01  8.00000000E-01
  8.50000000E-01  8.50000000E-01  8.50000000E-01  8.00000000E-01  8.50000000E-01
  8.50000000E-01  8.50000000E-01  8.00000000E-01  8.50000000E-01  8.50000000E-01
  8.50000000E-01  8.00000000E-01  8.50000000E-01  8.50000000E-01  8.50000000E-01
  8.00000000E-01  8.50000000E-01  8.50000000E-01  8.50000000E-01  8.00000000E-01
  8.50000000E-01  8.50000000E-01  8.50000000E-01  8.00000000E-01  8.50000000E-01
  8.50000000E-01  8.50000000E-01  8.00000000E-01  8.50000000E-01  8.50000000E-01
  8.50000000E-01  8.00000000E-01  8.50000000E-01  8.50000000E-01  8.50000000E-01
  8.00000000E-01  8.50000000E-01  8.50000000E-01  8.50000000E-01  8.00000000E-01
  8.50000000E-01  8.50000000E-01  8.50000000E-01  8.00000000E-01  8.50000000E-01
  8.50000000E-01  8.50000000E-01  8.00000000E-01  8.50000000E-01  8.50000000E-01
  8.50000000E-01  8.00000000E-01  8.50000000E-01  8.50000000E-01  8.50000000E-01
  8.00000000E-01  8.50000000E-01  8.50000000E-01  8.50000000E-01  8.00000000E-01
  8.50000000E-01  8.50000000E-01  8.50000000E-01  8.00000000E-01  8.50000000E-01
  8.50000000E-01  8.50000000E-01  8.00000000E-01  8.50000000E-01  8.50000000E-01
  8.50000000E-01  8.00000000E-01  8.50000000E-01  8.50000000E-01  8.50000000E-01
  8.00000000E-01  8.50000000E-01  8.50000000E-01  8.50000000E-01  8.00000000E-01
  8.50000000E-01  8.50000000E-01  8.50000000E-01  8.00000000E-01  8.50000000E-01
  8.50000000E-01  8.50000000E-01  8.00000000E-01  8.50000000E-01  8.50000000E-01
  8.50000000E-01  8.00000000E-01  8.50000000E-01  8.50000000E-01  8.50000000E-01
  8.00000000E-01  8.50000000E-01  8.50000000E-01  8.50000000E-01  8.00000000E-01
  8.50000000E-01  8.50000000E-01  8.50000000E-01  8.00000000E-01  8.50000000E-01
  8.50000000E-01  8.50000000E-01  8.00000000E-01  8.50000000E-01  8.50000000E-01
  8.50000000E-01  8.00000000E-01  8.50000000E-01  8.50000000E-01  8.50000000E-01
  8.00000000E-01  8.50000000E-01  8.50000000E-01  8.50000000E-01  8.00000000E-01
  8.50000000E-01  8.50000000E-01  8.50000000E-01  8.00000000E-01  8.50000000E-01
  8.50000000E-01  8.50000000E-01  8.00000000E-01  8.50000000E-01  8.50000000E-01
  8.50000000E-01  8.00000000E-01  8.50000000E-01  8.50000000E-01  8.50000000E-01
  8.00000000E-01  8.50000000E-01  8.50000000E-01  8.50000000E-01  8.00000000E-01
  8.50000000E-01  8.50000000E-01  8.50000000E-01  8.00000000E-01  8.50000000E-01
  8.50000000E-01  8.50000000E-01  8.00000000E-01  8.50000000E-01  8.50000000E-01
  8.50000000E-01  8.00000000E-01  8.50000000E-01  8.50000000E-01  8.50000000E-01
  8.00000000E-01  8.50000000E-01  8.50000000E-01  8.50000000E-01  8.00000000E-01
  8.50000000E-01  8.50000000E-01  8.50000000E-01  8.00000000E-01  8.50000000E-01
  8.50000000E-01  8.50000000E-01  8.00000000E-01  8.50000000E-01  8.50000000E-01
  8.50000000E-01  8.00000000E-01  8.50000000E-01  8.50000000E-01  8.50000000E-01
  8.00000000E-01  8.50000000E-01  8.50000000E-01  8.50000000E-01  8.00000000E-01
  8.50000000E-01  8.50000000E-01  8.50000000E-01  8.00000000E-01  8.50000000E-01
  8.50000000E-01  8.50000000E-01  8.00000000E-01  8.50000000E-01  8.50000000E-01
  8.50000000E-01  8.00000000E-01  8.50000000E-01  8.50000000E-01  8.50000000E-01
  8.00000000E-01  8.50000000E-01  8.50000000E-01  8.50000000E-01  8.00000000E-01
  8.50000000E-01  8.50000000E-01  8.50000000E-01  8.00000000E-01  8.50000000E-01
  8.50000000E-01  8.50000000E-01  8.00000000E-01  8.50000000E-01  8.50000000E-01
  8.50000000E-01  8.00000000E-01  8.50000000E-01  8.50000000E-01  8.50000000E-01
  8.00000000E-01  8.50000000E-01  8.50000000E-01  8.50000000E-01  8.00000000E-01
  8.50000000E-01  8.50000000E-01  8.50000000E-01  8.00000000E-01  8.50000000E-01
  8.50000000E-01  8.50000000E-01  8.00000000E-01  8.50000000E-01  8.50000000E-01
  8.50000000E-01  8.00000000E-01  8.50000000E-01  8.50000000E-01  8.50000000E-01
  8.00000000E-01  8.50000000E-01  8.50000000E-01  8.50000000E-01  8.00000000E-01
  8.50000000E-01  8.50000000E-01  8.50000000E-01  8.00000000E-01  8.50000000E-01
  8.50000000E-01  8.50000000E-01  8.00000000E-01  8.50000000E-01  8.50000000E-01
  8.50000000E-01  8.00000000E-01  8.50000000E-01  8.50000000E-01  8.50000000E-01
  8.00000000E-01  8.50000000E-01  8.50000000E-01  8.50000000E-01  8.00000000E-01
  8.50000000E-01  8.50000000E-01  8.50000000E-01  8.00000000E-01  8.50000000E-01
  8.50000000E-01  8.50000000E-01  8.00000000E-01  8.50000000E-01  8.50000000E-01
  8.50000000E-01  8.00000000E-01  8.50000000E-01  8.50000000E-01  8.50000000E-01
  8.00000000E-01  8.50000000E-01  8.50000000E-01  8.50000000E-01  8.00000000E-01
  8.50000000E-01  8.50000000E-01  8.50000000E-01  8.00000000E-01  8.50000000E-01
  8.50000000E-01  8.50000000E-01  8.00000000E-01  8.50000000E-01  8.50000000E-01
  8.50000000E-01  8.00000000E-01  8.50000000E-01  8.50000000E-01  8.50000000E-01
  8.00000000E-01  8.50000000E-01  8.50000000E-01  8.50000000E-01  8.00000000E-01
  8.50000000E-01  8.50000000E-01  8.50000000E-01  8.00000000E-01  8.50000000E-01
  8.50000000E-01  8.50000000E-01  8.00000000E-01  8.50000000E-01  8.50000000E-01
  8.50000000E-01  8.00000000E-01  8.50000000E-01  8.50000000E-01  8.50000000E-01
  8.00000000E-01  8.50000000E-01  8.50000000E-01  8.50000000E-01  8.00000000E-01
  8.50000000E-01  8.50000000E-01  8.50000000E-01  8.00000000E-01  8.50000000E-01
  8.50000000E-01  8.50000000E-01  8.00000000E-01  8.50000000E-01  8.50000000E-01
  8.50000000E-01  8.00000000E-01  8.50000000E-01  8.50000000E-01  8.50000000E-01
  8.00000000E-01  8.50000000E-01  8.50000000E-01  8.50000000E-01  8.00000000E-01
  8.50000000E-01  8.50000000E-01  8.50000000E-01  8.00000000E-01  8.50000000E-01
  8.50000000E-01  8.50000000E-01  8.00000000E-01  8.50000000E-01  8.50000000E-01
  8.50000000E-01  8.00000000E-01  8.50000000E-01  8.50000000E-01  8.50000000E-01
  8.00000000E-01  8.50000000E-01  8.50000000E-01  8.50000000E-01  8.00000000E-01
  8.50000000E-01  8.50000000E-01  8.50000000E-01  8.00000000E-01  8.50000000E-01
  8.50000000E-01  8.50000000E-01  8.00000000E-01  8.50000000E-01  8.50000000E-01
  8.50000000E-01  8.00000000E-01  8.50000000E-01  8.50000000E-01  8.50000000E-01
  8.00000000E-01  8.50000000E-01  8.50000000E-01  8.50000000E-01  8.00000000E-01
  8.50000000E-01  8.50000000E-01  8.50000000E-01  8.00000000E-01  8.50000000E-01
  8.50000000E-01  8.50000000E-01  8.00000000E-01  8.50000000E-01  8.50000000E-01
  8.50000000E-01  8.00000000E-01  8.50000000E-01  8.50000000E-01  8.50000000E-01
  8.00000000E-01  8.50000000E-01  8.50000000E-01  8.50000000E-01  8.00000000E-01
  8.50000000E-01  8.50000000E-01  8.50000000E-01  8.00000000E-01  8.50000000E-01
  8.50000000E-01  8.50000000E-01  8.00000000E-01  8.50000000E-01  8.50000000E-01
  8.50000000E-01  8.00000000E-01  8.50000000E-01  8.50000000E-01  8.50000000E-01
  8.00000000E-01  8.50000000E-01  8.50000000E-01  8.50000000E-01  8.00000000E-01
  8.50000000E-01  8.50000000E-01  8.50000000E-01  8.00000000E-01  8.50000000E-01
  8.50000000E-01  8.50000000E-01  8.00000000E-01  8.50000000E-01  8.50000000E-01
  8.50000000E-01  8.00000000E-01  8.50000000E-01  8.50000000E-01  8.50000000E-01
  8.00000000E-01  8.50000000E-01  8.50000000E-01  8.50000000E-01  8.00000000E-01
  8.50000000E-01  8.50000000E-01  8.50000000E-01  8.00000000E-01  8.50000000E-01
  8.50000000E-01  8.50000000E-01  8.00000000E-01  8.50000000E-01  8.50000000E-01
  8.50000000E-01  8.00000000E-01  8.50000000E-01  8.50000000E-01  8.50000000E-01
  8.00000000E-01  8.50000000E-01  8.50000000E-01  8.50000000E-01  8.00000000E-01
  8.50000000E-01  8.50000000E-01  8.50000000E-01  8.00000000E-01  8.50000000E-01
  8.50000000E-01  8.50000000E-01  8.00000000E-01  8.50000000E-01  8.50000000E-01
  8.50000000E-01  8.00000000E-01  8.50000000E-01  8.50000000E-01  8.50000000E-01
  8.00000000E-01  8.50000000E-01  8.50000000E-01  8.50000000E-01  8.00000000E-01
  8.50000000E-01  8.50000000E-01  8.50000000E-01  8.00000000E-01  8.50000000E-01
  8.50000000E-01  8.50000000E-01  8.00000000E-01  8.50000000E-01  8.50000000E-01
  8.50000000E-01  8.00000000E-01  8.50000000E-01  8.50000000E-01  8.50000000E-01
  8.00000000E-01  8.50000000E-01  8.50000000E-01  8.50000000E-01  8.00000000E-01
  8.50000000E-01  8.50000000E-01  8.50000000E-01  8.00000000E-01  8.50000000E-01
  8.50000000E-01  8.50000000E-01  8.00000000E-01  8.50000000E-01  8.50000000E-01
  8.50000000E-01  8.00000000E-01  8.50000000E-01  8.50000000E-01  8.50000000E-01
  8.00000000E-01  8.50000000E-01  8.50000000E-01  8.50000000E-01  8.00000000E-01
  8.50000000E-01  8.50000000E-01  8.50000000E-01  8.00000000E-01  8.50000000E-01
  8.50000000E-01  8.50000000E-01  8.00000000E-01  8.50000000E-01  8.50000000E-01
  8.50000000E-01  8.00000000E-01  8.50000000E-01  8.50000000E-01  8.50000000E-01
  8.00000000E-01  8.50000000E-01  8.50000000E-01  8.50000000E-01  8.00000000E-01
  8.50000000E-01  8.50000000E-01  8.50000000E-01  8.00000000E-01  8.50000000E-01
  8.50000000E-01  8.50000000E-01  8.00000000E-01  8.50000000E-01  8.50000000E-01
  8.50000000E-01  8.00000000E-01  8.50000000E-01  8.50000000E-01  8.50000000E-01
  8.00000000E-01  8.50000000E-01  8.50000000E-01  8.50000000E-01  8.00000000E-01
  8.50000000E-01  8.50000000E-01  8.50000000E-01  8.00000000E-01  8.50000000E-01
  8.50000000E-01  8.50000000E-01  8.00000000E-01  8.50000000E-01  8.50000000E-01
  8.50000000E-01  8.00000000E-01  8.50000000E-01  8.50000000E-01  8.50000000E-01
  8.00000000E-01  8.50000000E-01  8.50000000E-01  8.50000000E-01  8.00000000E-01
  8.50000000E-01  8.50000000E-01  8.50000000E-01  8.00000000E-01  8.50000000E-01
  8.50000000E-01  8.50000000E-01  8.00000000E-01  8.50000000E-01  8.50000000E-01
  8.50000000E-01  8.00000000E-01  8.50000000E-01  8.50000000E-01  8.50000000E-01
  8.00000000E-01  8.50000000E-01  8.50000000E-01  8.50000000E-01  8.00000000E-01
  8.50000000E-01  8.50000000E-01  8.50000000E-01  8.00000000E-01  8.50000000E-01
  8.50000000E-01  8.50000000E-01  8.00000000E-01  8.50000000E-01  8.50000000E-01
  8.50000000E-01  8.00000000E-01  8.50000000E-01  8.50000000E-01  8.50000000E-01
  8.00000000E-01  8.50000000E-01  8.50000000E-01  8.50000000E-01  8.00000000E-01
  8.50000000E-01  8.50000000E-01  8.50000000E-01  8.00000000E-01  8.50000000E-01
  8.50000000E-01  8.50000000E-01  8.00000000E-01  8.50000000E-01  8.50000000E-01
  8.50000000E-01  8.00000000E-01  8.50000000E-01  8.50000000E-01  8.50000000E-01
  8.00000000E-01  8.50000000E-01  8.50000000E-01  8.50000000E-01  8.00000000E-01
  8.50000000E-01  8.50000000E-01  8.50000000E-01  8.00000000E-01  8.50000000E-01
  8.50000000E-01  8.50000000E-01  8.00000000E-01  8.50000000E-01  8.50000000E-01
  8.50000000E-01  8.00000000E-01  8.50000000E-01  8.50000000E-01  8.50000000E-01
  8.00000000E-01  8.50000000E-01  8.50000000E-01  8.50000000E-01  8.00000000E-01
  8.50000000E-01  8.50000000E-01  8.50000000E-01  8.00000000E-01  8.50000000E-01
  8.50000000E-01  8.50000000E-01  8.00000000E-01  8.50000000E-01  8.50000000E-01
  8.50000000E-01  8.00000000E-01  8.50000000E-01  8.50000000E-01  8.50000000E-01
  8.00000000E-01  8.50000000E-01  8.50000000E-01  8.50000000E-01  8.00000000E-01
  8.50000000E-01  8.50000000E-01  8.50000000E-01  8.00000000E-01  8.50000000E-01
  8.50000000E-01  8.50000000E-01  8.00000000E-01  8.50000000E-01  8.50000000E-01
  8.50000000E-01  8.00000000E-01  8.50000000E-01  8.50000000E-01  8.50000000E-01
  8.00000000E-01  8.50000000E-01  8.50000000E-01  8.50000000E-01  8.00000000E-01
  8.50000000E-01  8.50000000E-01  8.50000000E-01  8.00000000E-01  8.50000000E-01
  8.50000000E-01  8.50000000E-01  8.00000000E-01  8.50000000E-01  8.50000000E-01
  8.50000000E-01  8.00000000E-01  8.50000000E-01  8.50000000E-01  8.50000000E-01
  8.00000000E-01  8.50000000E-01  8.50000000E-01  8.50000000E-01  8.00000000E-01
  8.50000000E-01  8.50000000E-01  8.50000000E-01  8.00000000E-01  8.50000000E-01
  8.50000000E-01  8.50000000E-01  8.00000000E-01  8.50000000E-01  8.50000000E-01
  8.50000000E-01  8.00000000E-01  8.50000000E-01  8.50000000E-01  8.50000000E-01
  8.00000000E-01  8.50000000E-01  8.50000000E-01  8.50000000E-01  8.00000000E-01
  8.50000000E-01  8.50000000E-01  8.50000000E-01  8.00000000E-01  8.50000000E-01
  8.50000000E-01  8.50000000E-01  8.00000000E-01  8.50000000E-01  8.50000000E-01
  8.50000000E-01  8.00000000E-01  8.50000000E-01  8.50000000E-01  8.50000000E-01
  8.00000000E-01  8.50000000E-01  8.50000000E-01  8.50000000E-01  8.00000000E-01
  8.50000000E-01  8.50000000E-01  8.50000000E-01  8.00000000E-01  8.50000000E-01
  8.50000000E-01  8.50000000E-01  8.00000000E-01  8.50000000E-01  8.50000000E-01
  8.50000000E-01  8.00000000E-01  8.50000000E-01  8.50000000E-01  8.50000000E-01
  8.00000000E-01  8.50000000E-01  8.50000000E-01  8.50000000E-01  8.00000000E-01
  8.50000000E-01  8.50000000E-01  8.50000000E-01  8.00000000E-01  8.50000000E-01
  8.50000000E-01  8.50000000E-01  8.00000000E-01  8.50000000E-01  8.50000000E-01
  8.50000000E-01  8.00000000E-01  8.50000000E-01  8.50000000E-01  8.50000000E-01
  8.00000000E-01  8.50000000E-01  8.50000000E-01  8.50000000E-01  8.00000000E-01
  8.50000000E-01  8.50000000E-01  8.50000000E-01  8.00000000E-01  8.50000000E-01
  8.50000000E-01  8.50000000E-01  8.00000000E-01  8.50000000E-01  8.50000000E-01
  8.50000000E-01  8.00000000E-01  8.50000000E-01  8.50000000E-01  8.50000000E-01
  8.00000000E-01  8.50000000E-01  8.50000000E-01  8.50000000E-01  8.00000000E-01
  8.50000000E-01  8.50000000E-01  8.50000000E-01  8.00000000E-01  8.50000000E-01
  8.50000000E-01  8.50000000E-01  8.00000000E-01  8.50000000E-01  8.50000000E-01
  8.50000000E-01  8.00000000E-01  8.50000000E-01  8.50000000E-01  8.50000000E-01
  8.00000000E-01  8.50000000E-01  8.50000000E-01  8.50000000E-01  8.00000000E-01
  8.50000000E-01  8.50000000E-01  8.50000000E-01  8.00000000E-01  8.50000000E-01
  8.50000000E-01  8.50000000E-01  8.00000000E-01  8.50000000E-01  8.50000000E-01
  8.50000000E-01  8.00000000E-01  8.50000000E-01  8.50000000E-01  8.50000000E-01
  8.00000000E-01  8.50000000E-01  8.50000000E-01  8.50000000E-01  8.00000000E-01
  8.50000000E-01  8.50000000E-01  8.50000000E-01  8.00000000E-01  8.50000000E-01
  8.50000000E-01  8.50000000E-01  8.00000000E-01  8.50000000E-01  8.50000000E-01
  8.50000000E-01  8.00000000E-01  8.50000000E-01  8.50000000E-01  8.50000000E-01
  8.00000000E-01  8.50000000E-01  8.50000000E-01  8.50000000E-01  8.00000000E-01
  8.50000000E-01  8.50000000E-01  8.50000000E-01  8.00000000E-01  8.50000000E-01
  8.50000000E-01  8.50000000E-01  8.00000000E-01  8.50000000E-01  8.50000000E-01
  8.50000000E-01  8.00000000E-01  8.50000000E-01  8.50000000E-01  8.50000000E-01
  8.00000000E-01  8.50000000E-01  8.50000000E-01  8.50000000E-01  8.00000000E-01
  8.50000000E-01  8.50000000E-01  8.50000000E-01  8.00000000E-01  8.50000000E-01
  8.50000000E-01  8.50000000E-01  8.00000000E-01  8.50000000E-01  8.50000000E-01
  8.50000000E-01  8.00000000E-01  8.50000000E-01  8.50000000E-01  8.50000000E-01
  8.00000000E-01  8.50000000E-01  8.50000000E-01  8.50000000E-01  8.00000000E-01
  8.50000000E-01  8.50000000E-01  8.50000000E-01  8.00000000E-01  8.50000000E-01
  8.50000000E-01  8.50000000E-01  8.00000000E-01  8.50000000E-01  8.50000000E-01
  8.50000000E-01  8.00000000E-01  8.50000000E-01  8.50000000E-01  8.50000000E-01
  8.00000000E-01  8.50000000E-01  8.50000000E-01  8.50000000E-01  8.00000000E-01
  8.50000000E-01  8.50000000E-01  8.50000000E-01  8.00000000E-01  8.50000000E-01
  8.50000000E-01  8.50000000E-01  8.00000000E-01  8.50000000E-01  8.50000000E-01
  8.50000000E-01  8.00000000E-01  8.50000000E-01  8.50000000E-01  8.50000000E-01
  8.00000000E-01  8.50000000E-01  8.50000000E-01  8.50000000E-01  8.00000000E-01
  8.50000000E-01  8.50000000E-01  8.50000000E-01  8.00000000E-01  8.50000000E-01
  8.50000000E-01  8.50000000E-01  8.00000000E-01  8.50000000E-01  8.50000000E-01
  8.50000000E-01  8.00000000E-01  8.50000000E-01  8.50000000E-01  8.50000000E-01
  8.00000000E-01  8.50000000E-01  8.50000000E-01  8.50000000E-01  8.00000000E-01
  8.50000000E-01  8.50000000E-01  8.50000000E-01  8.00000000E-01  8.50000000E-01
  8.50000000E-01  8.50000000E-01  8.00000000E-01  8.50000000E-01  8.50000000E-01
  8.50000000E-01  8.00000000E-01  8.50000000E-01  8.50000000E-01  8.50000000E-01
  8.00000000E-01  8.50000000E-01  8.50000000E-01  8.50000000E-01  8.00000000E-01
  8.50000000E-01  8.50000000E-01  8.50000000E-01  8.00000000E-01  8.50000000E-01
  8.50000000E-01  8.50000000E-01  8.00000000E-01  8.50000000E-01  8.50000000E-01
  8.50000000E-01  8.00000000E-01  8.50000000E-01  8.50000000E-01  8.50000000E-01
  8.00000000E-01  8.50000000E-01  8.50000000E-01  8.50000000E-01  8.00000000E-01
  8.50000000E-01  8.50000000E-01  8.50000000E-01  8.00000000E-01  8.50000000E-01
  8.50000000E-01  8.50000000E-01  8.00000000E-01  8.50000000E-01  8.50000000E-01
  8.50000000E-01  8.00000000E-01  8.50000000E-01  8.50000000E-01  8.50000000E-01
  8.00000000E-01  8.50000000E-01  8.50000000E-01  8.50000000E-01  8.00000000E-01
  8.50000000E-01  8.50000000E-01  8.50000000E-01  8.00000000E-01  8.50000000E-01
  8.50000000E-01  8.50000000E-01  8.00000000E-01  8.50000000E-01  8.50000000E-01
  8.50000000E-01  8.00000000E-01  8.50000000E-01  8.50000000E-01  8.50000000E-01
  8.00000000E-01  8.50000000E-01  8.50000000E-01  8.50000000E-01  8.00000000E-01
  8.50000000E-01  8.50000000E-01  8.50000000E-01  8.00000000E-01  8.50000000E-01
  8.50000000E-01  8.50000000E-01  8.00000000E-01  8.50000000E-01  8.50000000E-01
  8.50000000E-01  8.00000000E-01  8.50000000E-01  8.50000000E-01  8.50000000E-01
  8.00000000E-01  8.50000000E-01  8.50000000E-01  8.50000000E-01  8.00000000E-01
  8.50000000E-01  8.50000000E-01  8.50000000E-01  8.00000000E-01  8.50000000E-01
  8.50000000E-01  8.50000000E-01  8.00000000E-01  8.50000000E-01  8.50000000E-01
  8.50000000E-01  8.00000000E-01  8.50000000E-01  8.50000000E-01  8.50000000E-01
  8.00000000E-01  8.50000000E-01  8.50000000E-01  8.50000000E-01  8.00000000E-01
  8.50000000E-01  8.50000000E-01  8.50000000E-01  8.00000000E-01  8.50000000E-01
  8.50000000E-01  8.50000000E-01  8.00000000E-01  8.50000000E-01  8.50000000E-01
  8.50000000E-01  8.00000000E-01  8.50000000E-01  8.50000000E-01  8.50000000E-01
  8.00000000E-01  8.50000000E-01  8.50000000E-01  8.50000000E-01  8.00000000E-01
  8.50000000E-01  8.50000000E-01  8.50000000E-01  8.00000000E-01  8.50000000E-01
  8.50000000E-01  8.50000000E-01  8.00000000E-01  8.50000000E-01  8.50000000E-01
  8.50000000E-01  8.00000000E-01  8.50000000E-01  8.50000000E-01  8.50000000E-01
  8.00000000E-01  8.50000000E-01  8.50000000E-01  8.50000000E-01  8.00000000E-01
  8.50000000E-01  8.50000000E-01  8.50000000E-01  8.00000000E-01  8.50000000E-01
  8.50000000E-01  8.50000000E-01  8.00000000E-01  8.50000000E-01  8.50000000E-01
  8.50000000E-01  8.00000000E-01  8.50000000E-01  8.50000000E-01  8.50000000E-01
  8.00000000E-01  8.50000000E-01  8.50000000E-01  8.50000000E-01  8.00000000E-01
  8.50000000E-01  8.50000000E-01  8.50000000E-01  8.00000000E-01  8.50000000E-01
  8.50000000E-01  8.50000000E-01  8.00000000E-01  8.50000000E-01  8.50000000E-01
  8.50000000E-01  8.00000000E-01  8.50000000E-01  8.50000000E-01  8.50000000E-01
  8.00000000E-01  8.50000000E-01  8.50000000E-01  8.50000000E-01  8.00000000E-01
  8.50000000E-01  8.50000000E-01  8.50000000E-01  8.00000000E-01  8.50000000E-01
  8.50000000E-01  8.50000000E-01  8.00000000E-01  8.50000000E-01  8.50000000E-01
  8.50000000E-01  8.00000000E-01  8.50000000E-01  8.50000000E-01  8.50000000E-01
  8.00000000E-01  8.50000000E-01  8.50000000E-01  8.50000000E-01  8.00000000E-01
  8.50000000E-01  8.50000000E-01  8.50000000E-01  8.00000000E-01  8.50000000E-01
  8.50000000E-01  8.50000000E-01  8.00000000E-01  8.50000000E-01  8.50000000E-01
  8.50000000E-01  8.00000000E-01  8.50000000E-01  8.50000000E-01  8.50000000E-01
  8.00000000E-01  8.50000000E-01  8.50000000E-01  8.50000000E-01  8.00000000E-01
  8.50000000E-01  8.50000000E-01  8.50000000E-01  8.00000000E-01  8.50000000E-01
  8.50000000E-01  8.50000000E-01  8.00000000E-01  8.50000000E-01  8.50000000E-01
  8.50000000E-01  8.00000000E-01  8.50000000E-01  8.50000000E-01  8.50000000E-01
  8.00000000E-01  8.50000000E-01  8.50000000E-01  8.50000000E-01  8.00000000E-01
  8.50000000E-01  8.50000000E-01  8.50000000E-01  8.00000000E-01  8.50000000E-01
  8.50000000E-01  8.50000000E-01  8.00000000E-01  8.50000000E-01  8.50000000E-01
  8.50000000E-01  8.00000000E-01  8.50000000E-01  8.50000000E-01  8.50000000E-01
  8.00000000E-01  8.50000000E-01  8.50000000E-01  8.50000000E-01  8.00000000E-01
  8.50000000E-01  8.50000000E-01  8.50000000E-01  8.00000000E-01  8.50000000E-01
  8.50000000E-01  8.50000000E-01  8.00000000E-01  8.50000000E-01  8.50000000E-01
  8.50000000E-01  8.00000000E-01  8.50000000E-01  8.50000000E-01  8.50000000E-01
  8.00000000E-01  8.50000000E-01  8.50000000E-01  8.50000000E-01  8.00000000E-01
  8.50000000E-01  8.50000000E-01  8.50000000E-01  8.00000000E-01  8.50000000E-01
  8.50000000E-01  8.50000000E-01  8.00000000E-01  8.50000000E-01  8.50000000E-01
  8.50000000E-01  8.00000000E-01  8.50000000E-01  8.50000000E-01  8.50000000E-01
  8.00000000E-01  8.50000000E-01  8.50000000E-01  8.50000000E-01  8.00000000E-01
  8.50000000E-01  8.50000000E-01  8.50000000E-01  8.00000000E-01  8.50000000E-01
  8.50000000E-01  8.50000000E-01  8.00000000E-01  8.50000000E-01  8.50000000E-01
  8.50000000E-01  8.00000000E-01  8.50000000E-01  8.50000000E-01  8.50000000E-01
  8.00000000E-01  8.50000000E-01  8.50000000E-01  8.50000000E-01  8.00000000E-01
  8.50000000E-01  8.50000000E-01  8.50000000E-01  8.00000000E-01  8.50000000E-01
  8.50000000E-01  8.50000000E-01  8.00000000E-01  8.50000000E-01  8.50000000E-01
  8.50000000E-01  8.00000000E-01  8.50000000E-01  8.50000000E-01  8.50000000E-01
  8.00000000E-01  8.50000000E-01  8.50000000E-01  8.50000000E-01  8.00000000E-01
  8.50000000E-01  8.50000000E-01  8.50000000E-01  8.00000000E-01  8.50000000E-01
  8.50000000E-01  8.50000000E-01  8.00000000E-01  8.50000000E-01  8.50000000E-01
  8.50000000E-01  8.00000000E-01  8.50000000E-01  8.50000000E-01  8.50000000E-01
  8.00000000E-01  8.50000000E-01  8.50000000E-01  8.50000000E-01  8.00000000E-01
  8.50000000E-01  8.50000000E-01  8.50000000E-01  8.00000000E-01  8.50000000E-01
  8.50000000E-01  8.50000000E-01  8.00000000E-01  8.50000000E-01  8.50000000E-01
  8.50000000E-01  8.00000000E-01  8.50000000E-01  8.50000000E-01  8.50000000E-01
  8.00000000E-01  8.50000000E-01  8.50000000E-01  8.50000000E-01  8.00000000E-01
  8.50000000E-01  8.50000000E-01  8.50000000E-01  8.00000000E-01  8.50000000E-01
  8.50000000E-01  8.50000000E-01  8.00000000E-01  8.50000000E-01  8.50000000E-01
  8.50000000E-01  8.00000000E-01  8.50000000E-01  8.50000000E-01  8.50000000E-01
  8.00000000E-01  8.50000000E-01  8.50000000E-01  8.50000000E-01  8.00000000E-01
  8.50000000E-01  8.50000000E-01  8.50000000E-01  8.00000000E-01  8.50000000E-01
  8.50000000E-01  8.50000000E-01  8.00000000E-01  8.50000000E-01  8.50000000E-01
  8.50000000E-01  8.00000000E-01  8.50000000E-01  8.50000000E-01  8.50000000E-01
  8.00000000E-01  8.50000000E-01  8.50000000E-01  8.50000000E-01  8.00000000E-01
  8.50000000E-01  8.50000000E-01  8.50000000E-01  8.00000000E-01  8.50000000E-01
  8.50000000E-01  8.50000000E-01  8.00000000E-01  8.50000000E-01  8.50000000E-01
  8.50000000E-01  8.00000000E-01  8.50000000E-01  8.50000000E-01  8.50000000E-01
  8.00000000E-01  8.50000000E-01  8.50000000E-01  8.50000000E-01  8.00000000E-01
  8.50000000E-01  8.50000000E-01  8.50000000E-01  8.00000000E-01  8.50000000E-01
  8.50000000E-01  8.50000000E-01  8.00000000E-01  8.50000000E-01  8.50000000E-01
  8.50000000E-01  8.00000000E-01  8.50000000E-01  8.50000000E-01  8.50000000E-01
  8.00000000E-01  8.50000000E-01  8.50000000E-01  8.50000000E-01  8.00000000E-01
  8.50000000E-01  8.50000000E-01  8.50000000E-01  8.00000000E-01  8.50000000E-01
  8.50000000E-01  8.50000000E-01  8.00000000E-01  8.50000000E-01  8.50000000E-01
  8.50000000E-01  8.00000000E-01  8.50000000E-01  8.50000000E-01  8.50000000E-01
  8.00000000E-01  8.50000000E-01  8.50000000E-01  8.50000000E-01  8.00000000E-01
  8.50000000E-01  8.50000000E-01  8.50000000E-01  8.00000000E-01  8.50000000E-01
  8.50000000E-01  8.50000000E-01  8.00000000E-01  8.50000000E-01  8.50000000E-01
  8.50000000E-01  8.00000000E-01  8.50000000E-01  8.50000000E-01  8.50000000E-01
  8.00000000E-01  8.50000000E-01  8.50000000E-01  8.50000000E-01  8.00000000E-01
  8.50000000E-01  8.50000000E-01  8.50000000E-01  8.00000000E-01  8.50000000E-01
  8.50000000E-01  8.50000000E-01  8.00000000E-01  8.50000000E-01  8.50000000E-01
  8.50000000E-01  8.00000000E-01  8.50000000E-01  8.50000000E-01  8.50000000E-01
  8.00000000E-01  8.50000000E-01  8.50000000E-01  8.50000000E-01  8.00000000E-01
  8.50000000E-01  8.50000000E-01  8.50000000E-01  8.00000000E-01  8.50000000E-01
  8.50000000E-01  8.50000000E-01  8.00000000E-01  8.50000000E-01  8.50000000E-01
  8.50000000E-01  8.00000000E-01  8.50000000E-01  8.50000000E-01  8.50000000E-01
  8.00000000E-01  8.50000000E-01  8.50000000E-01  8.50000000E-01  8.00000000E-01
  8.50000000E-01  8.50000000E-01  8.50000000E-01  8.00000000E-01  8.50000000E-01
  8.50000000E-01  8.50000000E-01  8.00000000E-01  8.50000000E-01  8.50000000E-01
  8.50000000E-01  8.00000000E-01  8.50000000E-01  8.50000000E-01  8.50000000E-01
  8.00000000E-01  8.50000000E-01  8.50000000E-01  8.50000000E-01  8.00000000E-01
  8.50000000E-01  8.50000000E-01  8.50000000E-01  8.00000000E-01  8.50000000E-01
  8.50000000E-01  8.50000000E-01  8.00000000E-01  8.50000000E-01  8.50000000E-01
  8.50000000E-01  8.00000000E-01  8.50000000E-01  8.50000000E-01  8.50000000E-01
  8.00000000E-01  8.50000000E-01  8.50000000E-01  8.50000000E-01  8.00000000E-01
  8.50000000E-01  8.50000000E-01  8.50000000E-01  8.00000000E-01  8.50000000E-01
  8.50000000E-01  8.50000000E-01  8.00000000E-01  8.50000000E-01  8.50000000E-01
  8.50000000E-01  8.00000000E-01  8.50000000E-01  8.50000000E-01  8.50000000E-01
  8.00000000E-01  8.50000000E-01  8.50000000E-01  8.50000000E-01  8.00000000E-01
  8.50000000E-01  8.50000000E-01  8.50000000E-01  8.00000000E-01  8.50000000E-01
  8.50000000E-01  8.50000000E-01  8.00000000E-01  8.50000000E-01  8.50000000E-01
  8.50000000E-01  8.00000000E-01  8.50000000E-01  8.50000000E-01  8.50000000E-01
  8.00000000E-01  8.50000000E-01  8.50000000E-01  8.50000000E-01  8.00000000E-01
  8.50000000E-01  8.50000000E-01  8.50000000E-01  8.00000000E-01  8.50000000E-01
  8.50000000E-01  8.50000000E-01  8.00000000E-01  8.50000000E-01  8.50000000E-01
  8.50000000E-01  8.00000000E-01  8.50000000E-01  8.50000000E-01  8.50000000E-01
  8.00000000E-01  8.50000000E-01  8.50000000E-01  8.50000000E-01  8.00000000E-01
  8.50000000E-01  8.50000000E-01  8.50000000E-01  8.00000000E-01  8.50000000E-01
  8.50000000E-01  8.50000000E-01  8.00000000E-01  8.50000000E-01  8.50000000E-01
  8.50000000E-01  8.00000000E-01  8.50000000E-01  8.50000000E-01  8.50000000E-01
  8.00000000E-01  8.50000000E-01  8.50000000E-01  8.50000000E-01  8.00000000E-01
  8.50000000E-01  8.50000000E-01  8.50000000E-01  8.00000000E-01  8.50000000E-01
  8.50000000E-01  8.50000000E-01  8.00000000E-01  8.50000000E-01  8.50000000E-01
  8.50000000E-01  8.00000000E-01  8.50000000E-01  8.50000000E-01  8.50000000E-01
  8.00000000E-01  8.50000000E-01  8.50000000E-01  8.50000000E-01  8.00000000E-01
  8.50000000E-01  8.50000000E-01  8.50000000E-01  8.00000000E-01  8.50000000E-01
  8.50000000E-01  8.50000000E-01  8.00000000E-01  8.50000000E-01  8.50000000E-01
  8.50000000E-01  8.00000000E-01  8.50000000E-01  8.50000000E-01  8.50000000E-01
  8.00000000E-01  8.50000000E-01  8.50000000E-01  8.50000000E-01  8.00000000E-01
  8.50000000E-01  8.50000000E-01  8.50000000E-01  8.00000000E-01  8.50000000E-01
  8.50000000E-01  8.50000000E-01  8.00000000E-01  8.50000000E-01  8.50000000E-01
  8.50000000E-01  8.00000000E-01  8.50000000E-01  8.50000000E-01  8.50000000E-01
  8.00000000E-01  8.50000000E-01  8.50000000E-01  8.50000000E-01  8.00000000E-01
  8.50000000E-01  8.50000000E-01  8.50000000E-01  8.00000000E-01  8.50000000E-01
  8.50000000E-01  8.50000000E-01  8.00000000E-01  8.50000000E-01  8.50000000E-01
  8.50000000E-01  8.00000000E-01  8.50000000E-01  8.50000000E-01  8.50000000E-01
  8.00000000E-01  8.50000000E-01  8.50000000E-01  8.50000000E-01  8.00000000E-01
  8.50000000E-01  8.50000000E-01  8.50000000E-01  8.00000000E-01  8.50000000E-01
  8.50000000E-01  8.50000000E-01  8.00000000E-01  8.50000000E-01  8.50000000E-01
  8.50000000E-01  8.00000000E-01  8.50000000E-01  8.50000000E-01  8.50000000E-01
  8.00000000E-01  8.50000000E-01  8.50000000E-01  8.50000000E-01  8.00000000E-01
  8.50000000E-01  8.50000000E-01  8.50000000E-01  8.00000000E-01  8.50000000E-01
  8.50000000E-01  8.50000000E-01  8.00000000E-01  8.50000000E-01  8.50000000E-01
  8.50000000E-01  8.00000000E-01  8.50000000E-01  8.50000000E-01  8.50000000E-01
  8.00000000E-01  8.50000000E-01  8.50000000E-01  8.50000000E-01  8.00000000E-01
  8.50000000E-01  8.50000000E-01  8.50000000E-01  8.00000000E-01  8.50000000E-01
  8.50000000E-01  8.50000000E-01  8.00000000E-01  8.50000000E-01  8.50000000E-01
  8.50000000E-01  8.00000000E-01  8.50000000E-01  8.50000000E-01  8.50000000E-01
  8.00000000E-01  8.50000000E-01  8.50000000E-01  8.50000000E-01  8.00000000E-01
  8.50000000E-01  8.50000000E-01  8.50000000E-01  8.00000000E-01  8.50000000E-01
  8.50000000E-01  8.50000000E-01  8.00000000E-01  8.50000000E-01  8.50000000E-01
  8.50000000E-01  8.00000000E-01  8.50000000E-01  8.50000000E-01  8.50000000E-01
  8.00000000E-01  8.50000000E-01  8.50000000E-01  8.50000000E-01  8.00000000E-01
  8.50000000E-01  8.50000000E-01  8.50000000E-01  8.00000000E-01  8.50000000E-01
  8.50000000E-01  8.50000000E-01  8.00000000E-01  8.50000000E-01  8.50000000E-01
  8.50000000E-01  8.00000000E-01  8.50000000E-01  8.50000000E-01  8.50000000E-01
  8.00000000E-01  8.50000000E-01  8.50000000E-01  8.50000000E-01  8.00000000E-01
  8.50000000E-01  8.50000000E-01  8.50000000E-01  8.00000000E-01  8.50000000E-01
  8.50000000E-01  8.50000000E-01  8.00000000E-01  8.50000000E-01  8.50000000E-01
  8.50000000E-01  8.00000000E-01  8.50000000E-01  8.50000000E-01  8.50000000E-01
  8.00000000E-01  8.50000000E-01  8.50000000E-01  8.50000000E-01  8.00000000E-01
  8.50000000E-01  8.50000000E-01  8.50000000E-01  8.00000000E-01  8.50000000E-01
  8.50000000E-01  8.50000000E-01  8.00000000E-01  8.50000000E-01  8.50000000E-01
  8.50000000E-01  8.00000000E-01  8.50000000E-01  8.50000000E-01  8.50000000E-01
  8.00000000E-01  8.50000000E-01  8.50000000E-01  8.50000000E-01  8.00000000E-01
  8.50000000E-01  8.50000000E-01  8.50000000E-01  8.00000000E-01  8.50000000E-01
  8.50000000E-01  8.50000000E-01  8.00000000E-01  8.50000000E-01  8.50000000E-01
  8.50000000E-01  8.00000000E-01  8.50000000E-01  8.50000000E-01  8.50000000E-01
  8.00000000E-01  8.50000000E-01  8.50000000E-01  8.50000000E-01  8.00000000E-01
  8.50000000E-01  8.50000000E-01  8.50000000E-01  8.00000000E-01  8.50000000E-01
  8.50000000E-01  8.50000000E-01  8.00000000E-01  8.50000000E-01  8.50000000E-01
  8.50000000E-01  8.00000000E-01  8.50000000E-01  8.50000000E-01  8.50000000E-01
  8.00000000E-01  8.50000000E-01  8.50000000E-01  8.50000000E-01  8.00000000E-01
  8.50000000E-01  8.50000000E-01  8.50000000E-01  8.00000000E-01  8.50000000E-01
  8.50000000E-01  8.50000000E-01  8.00000000E-01  8.50000000E-01  8.50000000E-01
  8.50000000E-01  8.00000000E-01  8.50000000E-01  8.50000000E-01  8.50000000E-01
  8.00000000E-01  8.50000000E-01  8.50000000E-01  8.50000000E-01  8.00000000E-01
  8.50000000E-01  8.50000000E-01  8.50000000E-01  8.00000000E-01  8.50000000E-01
  8.50000000E-01  8.50000000E-01  8.00000000E-01  8.50000000E-01  8.50000000E-01
  8.50000000E-01  8.00000000E-01  8.50000000E-01  8.50000000E-01  8.50000000E-01
  8.00000000E-01  8.50000000E-01  8.50000000E-01  8.50000000E-01  8.00000000E-01
  8.50000000E-01  8.50000000E-01  8.50000000E-01  8.00000000E-01  8.50000000E-01
  8.50000000E-01  8.50000000E-01  8.00000000E-01  8.50000000E-01  8.50000000E-01
  8.50000000E-01  8.00000000E-01  8.50000000E-01  8.50000000E-01  8.50000000E-01
  8.00000000E-01  8.50000000E-01  8.50000000E-01  8.50000000E-01  8.00000000E-01
  8.50000000E-01  8.50000000E-01  8.50000000E-01  8.00000000E-01  8.50000000E-01
  8.50000000E-01  8.50000000E-01  8.00000000E-01  8.50000000E-01  8.50000000E-01
  8.50000000E-01  8.00000000E-01  8.50000000E-01  8.50000000E-01  8.50000000E-01
  8.00000000E-01  8.50000000E-01  8.50000000E-01  8.50000000E-01  8.00000000E-01
  8.50000000E-01  8.50000000E-01  8.50000000E-01  8.00000000E-01  8.50000000E-01
  8.50000000E-01  8.50000000E-01  8.00000000E-01  8.50000000E-01  8.50000000E-01
  8.50000000E-01  8.00000000E-01  8.50000000E-01  8.50000000E-01  8.50000000E-01
  8.00000000E-01  8.50000000E-01  8.50000000E-01  8.50000000E-01  8.00000000E-01
  8.50000000E-01  8.50000000E-01  8.50000000E-01  8.00000000E-01  8.50000000E-01
  8.50000000E-01  8.50000000E-01  8.00000000E-01  8.50000000E-01  8.50000000E-01
  8.50000000E-01  8.00000000E-01  8.50000000E-01  8.50000000E-01  8.50000000E-01
  8.00000000E-01  8.50000000E-01  8.50000000E-01  8.50000000E-01  8.00000000E-01
  8.50000000E-01  8.50000000E-01  8.50000000E-01  8.00000000E-01  8.50000000E-01
  8.50000000E-01  8.50000000E-01  8.00000000E-01  8.50000000E-01  8.50000000E-01
  8.50000000E-01  8.00000000E-01  8.50000000E-01  8.50000000E-01  8.50000000E-01
  8.00000000E-01  8.50000000E-01  8.50000000E-01  8.50000000E-01  8.00000000E-01
  8.50000000E-01  8.50000000E-01  8.50000000E-01  8.00000000E-01  8.50000000E-01
  8.50000000E-01  8.50000000E-01  8.00000000E-01  8.50000000E-01  8.50000000E-01
  8.50000000E-01  8.00000000E-01  8.50000000E-01  8.50000000E-01  8.50000000E-01
  8.00000000E-01  8.50000000E-01  8.50000000E-01  8.50000000E-01  8.00000000E-01
  8.50000000E-01  8.50000000E-01  8.50000000E-01  8.00000000E-01  8.50000000E-01
  8.50000000E-01  8.50000000E-01  8.00000000E-01  8.50000000E-01  8.50000000E-01
  8.50000000E-01  8.00000000E-01  8.50000000E-01  8.50000000E-01  8.50000000E-01
  8.00000000E-01  8.50000000E-01  8.50000000E-01  8.50000000E-01  8.00000000E-01
  8.50000000E-01  8.50000000E-01  8.50000000E-01  8.00000000E-01  8.50000000E-01
  8.50000000E-01  8.50000000E-01  8.00000000E-01  8.50000000E-01  8.50000000E-01
  8.50000000E-01  8.00000000E-01  8.50000000E-01  8.50000000E-01  8.50000000E-01
  8.00000000E-01  8.50000000E-01  8.50000000E-01  8.50000000E-01  8.00000000E-01
  8.50000000E-01  8.50000000E-01  8.50000000E-01  8.00000000E-01  8.50000000E-01
  8.50000000E-01  8.50000000E-01  8.00000000E-01  8.50000000E-01  8.50000000E-01
  8.50000000E-01  8.00000000E-01  8.50000000E-01  8.50000000E-01  8.50000000E-01
  8.00000000E-01  8.50000000E-01  8.50000000E-01  8.50000000E-01  8.00000000E-01
  8.50000000E-01  8.50000000E-01  8.50000000E-01  8.00000000E-01  8.50000000E-01
  8.50000000E-01  8.50000000E-01  8.00000000E-01  8.50000000E-01  8.50000000E-01
  8.50000000E-01  8.00000000E-01  8.50000000E-01  8.50000000E-01  8.50000000E-01
  8.00000000E-01  8.50000000E-01  8.50000000E-01  8.50000000E-01  8.00000000E-01
  8.50000000E-01  8.50000000E-01  8.50000000E-01  8.00000000E-01  8.50000000E-01
  8.50000000E-01  8.50000000E-01  8.00000000E-01  8.50000000E-01  8.50000000E-01
  8.50000000E-01  8.00000000E-01  8.50000000E-01  8.50000000E-01  8.50000000E-01
  8.00000000E-01  8.50000000E-01  8.50000000E-01  8.50000000E-01  8.00000000E-01
  8.50000000E-01  8.50000000E-01  8.50000000E-01  8.00000000E-01  8.50000000E-01
  8.50000000E-01  8.50000000E-01  8.00000000E-01  8.50000000E-01  8.50000000E-01
  8.50000000E-01  8.00000000E-01  8.50000000E-01  8.50000000E-01  8.50000000E-01
  8.00000000E-01  8.50000000E-01  8.50000000E-01  8.50000000E-01  8.00000000E-01
  8.50000000E-01  8.50000000E-01  8.50000000E-01  8.00000000E-01  8.50000000E-01
  8.50000000E-01  8.50000000E-01  8.00000000E-01  8.50000000E-01  8.50000000E-01
  8.50000000E-01  8.00000000E-01  8.50000000E-01  8.50000000E-01  8.50000000E-01
  8.00000000E-01  8.50000000E-01  8.50000000E-01  8.50000000E-01  8.00000000E-01
  8.50000000E-01  8.50000000E-01  8.50000000E-01  8.00000000E-01  8.50000000E-01
  8.50000000E-01  8.50000000E-01  8.00000000E-01  8.50000000E-01  8.50000000E-01
  8.50000000E-01  8.00000000E-01  8.50000000E-01  8.50000000E-01  8.50000000E-01
  8.00000000E-01  8.50000000E-01  8.50000000E-01  8.50000000E-01  8.00000000E-01
  8.50000000E-01  8.50000000E-01  8.50000000E-01  8.00000000E-01  8.50000000E-01
  8.50000000E-01  8.50000000E-01  8.00000000E-01  8.50000000E-01  8.50000000E-01
  8.50000000E-01  8.00000000E-01  8.50000000E-01  8.50000000E-01  8.50000000E-01
  8.00000000E-01  8.50000000E-01  8.50000000E-01  8.50000000E-01  8.00000000E-01
  8.50000000E-01  8.50000000E-01  8.50000000E-01  8.00000000E-01  8.50000000E-01
  8.50000000E-01  8.50000000E-01  8.00000000E-01  8.50000000E-01  8.50000000E-01
  8.50000000E-01  8.00000000E-01  8.50000000E-01  8.50000000E-01  8.50000000E-01
  8.00000000E-01  8.50000000E-01  8.50000000E-01  8.50000000E-01  8.00000000E-01
  8.50000000E-01  8.50000000E-01  8.50000000E-01  8.00000000E-01  8.50000000E-01
  8.50000000E-01  8.50000000E-01  8.00000000E-01  8.50000000E-01  8.50000000E-01
  8.50000000E-01  8.00000000E-01  8.50000000E-01  8.50000000E-01  8.50000000E-01
  8.00000000E-01  8.50000000E-01  8.50000000E-01  8.50000000E-01  8.00000000E-01
  8.50000000E-01  8.50000000E-01  8.50000000E-01  8.00000000E-01  8.50000000E-01
  8.50000000E-01  8.50000000E-01  8.00000000E-01  8.50000000E-01  8.50000000E-01
  8.50000000E-01  8.00000000E-01  8.50000000E-01  8.50000000E-01  8.50000000E-01
  8.00000000E-01  8.50000000E-01  8.50000000E-01  8.50000000E-01  8.00000000E-01
  8.50000000E-01  8.50000000E-01  8.50000000E-01  8.00000000E-01  8.50000000E-01
  8.50000000E-01  8.50000000E-01  8.00000000E-01  8.50000000E-01  8.50000000E-01
  8.50000000E-01  8.00000000E-01  8.50000000E-01  8.50000000E-01  8.50000000E-01
  8.00000000E-01  8.50000000E-01  8.50000000E-01  8.50000000E-01  8.00000000E-01
  8.50000000E-01  8.50000000E-01  8.50000000E-01  8.00000000E-01  8.50000000E-01
  8.50000000E-01  8.50000000E-01  8.00000000E-01  8.50000000E-01  8.50000000E-01
  8.50000000E-01  8.00000000E-01
%FLAG IPOL                                                                      
%FORMAT(1I8)                                                                    
       0
