default_name
  8754
 -19.1770000 -17.7890000 -13.5140000   9.3540000 -18.1520000  16.5890000
  14.8660000 -18.9450000  -7.1120000   6.7460000  -8.8140000  -9.5770000
 -10.3470000   6.9420000 -10.2170000 -17.9900000   5.7410000   1.5640000
   9.3540000   0.7160000  -2.2710000 -15.4170000  20.5060000  -1.5540000
  17.1380000 -16.7540000  10.8610000 -12.5040000  22.2850000   9.9390000
   3.0470000   3.7910000  -1.5560000   1.9410000   3.2440000  -1.4550000
   1.8860000   1.9200000  -1.0310000   0.7320000   1.1920000  -0.8840000
   0.9200000  -0.1490000  -0.4160000   1.8550000  -0.9020000  -1.0400000
   2.7950000  -1.2430000  -0.0870000  -0.4840000   1.6720000  -1.1300000
  -0.4500000   2.9680000  -1.5430000   0.6490000   3.7760000  -1.7190000
   0.2570000   5.0320000  -2.1630000  -1.0390000   4.9680000  -2.2460000
  -1.5390000   3.7460000  -1.8790000   2.8060489   1.5023887  -0.8196428
   0.3279211  -0.4712199   0.3763175   3.5381014  -0.4628129   0.0857464
   3.3369799  -2.1318611  -0.4950316   2.2547039  -1.4982701   0.8398745
  -1.6487424   5.7882642  -2.5628957  -2.5534888   3.5197888  -1.8865520
  14.7940000  18.8090000  11.6180000  14.6410000  19.2660000  12.4450000
  15.5070000  18.1990000  11.8100000  14.8660000  18.7890000  11.7480000
  20.3010000  21.8400000  15.7370000  19.8750000  21.2330000  15.1330000
  19.6380000  22.5070000  15.9150000  20.1620000  21.8480000  15.6830000
  18.2680000  12.8910000  10.9790000  18.0020000  12.4280000  11.7740000
  18.2840000  12.2140000  10.3030000  18.2360000  12.7450000  10.9950000
  14.2010000  15.0150000  16.3900000  13.7940000  15.0140000  15.5230000
  13.7160000  15.6780000  16.8810000  14.0880000  15.1000000  16.3420000
  13.6290000  12.2020000  15.1080000  12.8700000  12.1890000  15.6930000
  14.1610000  11.4580000  15.3890000  13.6000000  12.1050000  15.2190000
  18.2890000  16.4010000  14.9390000  17.4640000  16.3830000  14.4540000
  18.0380000  16.2150000  15.8440000  18.1510000  16.3750000  14.9930000
  13.1140000  18.0230000   9.6090000  12.5110000  18.7600000   9.5130000
  13.7430000  18.3130000  10.2700000  13.1160000  18.1540000   9.6810000
  15.2690000  11.2940000   9.9190000  15.6110000  11.3030000  10.8130000
  14.7840000  12.1160000   9.8410000  15.2510000  11.4010000  10.0230000
  17.8720000  15.8050000  17.5730000  17.9580000  15.0210000  18.1160000
  18.3120000  16.4920000  18.0730000  17.9390000  15.7930000  17.7060000
  20.1050000  15.1460000  11.0490000  19.4790000  14.4220000  11.0730000
  20.3230000  15.3050000  11.9670000  20.0530000  15.0740000  11.1690000
  10.3050000  21.9310000  18.0820000  10.6990000  21.8610000  17.2120000
  10.9160000  21.4760000  18.6590000  10.4340000  21.8640000  18.0440000
  19.7760000  18.4750000  13.9330000  19.1040000  17.7940000  13.9630000
  19.8550000  18.6920000  13.0040000  19.7000000  18.4160000  13.8180000
   9.4090000  17.7230000  13.6990000  10.0740000  18.3230000  14.0370000
   8.5770000  18.1570000  13.8880000   9.3880000  17.8550000  13.7670000
  17.1560000  20.9040000  10.9880000  16.7730000  20.5950000  10.1670000
  17.3950000  21.8150000  10.8130000  17.1380000  20.9810000  10.8610000
  11.4120000  12.3590000  16.6660000  11.1740000  11.5400000  16.2320000
  10.6510000  12.9270000  16.5390000  11.2840000  12.3270000  16.5940000
  15.9830000  11.1740000  12.6700000  16.2270000  10.2990000  12.9710000
  15.7680000  11.6510000  13.4710000  15.9870000  11.1230000  12.8110000
  12.8200000  15.4390000  10.7040000  11.8960000  15.1960000  10.7420000
  12.8170000  16.3590000  10.4390000  12.7030000  15.5260000  10.6750000
  14.7900000  19.7920000  13.9930000  15.6130000  20.2780000  13.9550000
  14.8410000  19.2970000  14.8100000  14.9020000  19.7910000  14.0920000
  17.0850000  21.4290000  13.9950000  16.5620000  22.1320000  14.3810000
  17.0960000  21.6250000  13.0590000  17.0200000  21.5440000  13.9250000
  16.6920000  16.2570000  11.0130000  16.2120000  15.4400000  10.8820000
  17.1270000  16.4160000  10.1750000  16.6870000  16.1730000  10.8890000
  10.6570000  21.2940000  11.4710000  11.4240000  20.9710000  11.9460000
   9.9150000  21.0550000  12.0260000  10.6600000  21.2220000  11.6030000
  19.3890000  18.1070000  17.8950000  18.9820000  18.8670000  17.4790000
  20.2510000  18.0420000  17.4850000  19.4470000  18.1960000  17.7890000
  12.0790000  19.8370000  18.8800000  13.0370000  19.8210000  18.8610000
  11.8350000  19.0230000  19.3200000  12.1710000  19.7310000  18.9340000
  13.4810000  15.3610000  13.7020000  13.3910000  15.0900000  12.7890000
  12.5830000  15.5180000  13.9950000  13.3540000  15.3470000  13.6230000
  15.4270000  18.2770000  16.1020000  15.6140000  17.5250000  15.5400000
  16.2830000  18.6680000  16.2720000  15.5600000  18.2310000  16.0520000
  14.0740000  10.1470000  18.2610000  14.2440000  11.0680000  18.4600000
  14.6400000   9.6630000  18.8620000  14.1680000  10.2030000  18.3630000
  14.9280000  19.2740000  18.6540000  15.1850000  18.8560000  17.8320000
  15.0120000  18.5820000  19.3100000  14.9720000  19.1320000  18.6330000
  19.2990000  19.2510000  11.3130000  20.0290000  19.8700000  11.3020000
  18.5170000  19.8020000  11.2820000  19.2920000  19.4010000  11.3070000
  15.9540000  13.3690000  14.4120000  15.8060000  14.3120000  14.3340000
  15.1620000  13.0370000  14.8360000  15.8340000  13.4470000  14.4560000
  15.2100000  13.8580000  11.0070000  14.2930000  13.6430000  11.1730000
  15.6850000  13.4690000  11.7420000  15.1530000  13.7810000  11.1220000
  10.8150000  15.5850000  14.8900000  11.2150000  16.1690000  15.5340000
  10.3510000  16.1690000  14.2910000  10.8070000  15.7350000  14.8960000
  12.7750000  10.2640000  10.9350000  12.7760000  11.0060000  11.5390000
  13.2790000  10.5680000  10.1810000  12.8400000  10.3980000  10.9160000
  14.3010000  21.6780000  17.1840000  14.2140000  22.4580000  17.7330000
  14.3730000  20.9540000  17.8070000  14.2990000  21.6850000  17.3340000
   9.9320000  12.7620000  12.3890000   9.8750000  12.5080000  11.4680000
   9.3840000  13.5440000  12.4570000   9.8550000  12.8300000  12.2800000
  15.4850000  10.3350000  15.8200000  15.0790000  10.0040000  16.6220000
  15.5910000   9.5610000  15.2680000  15.4470000  10.1940000  15.8520000
  16.0280000  16.3810000  13.7060000  16.4010000  16.3160000  12.8270000
  15.1230000  16.0850000  13.6050000  15.9600000  16.3340000  13.5810000
  18.1730000  13.2780000  16.0910000  17.3200000  13.1400000  15.6790000
  18.2230000  14.2250000  16.2270000  18.0700000  13.3820000  16.0560000
  19.2180000  16.9490000   9.3300000  19.1990000  17.5990000  10.0320000
  19.5730000  16.1610000   9.7420000  19.2610000  16.9320000   9.4720000
  18.8910000  11.4520000  14.1820000  18.6660000  12.2370000  14.6810000
  19.7900000  11.6040000  13.8900000  18.9770000  11.5720000  14.2090000
  12.1210000  13.7420000  19.0810000  12.0270000  13.2750000  18.2510000
  12.9440000  13.4190000  19.4460000  12.2140000  13.6410000  19.0220000
  11.4790000  19.4990000  14.3660000  12.4350000  19.5310000  14.3930000
  11.2080000  20.4160000  14.4040000  11.5670000  19.6200000  14.3740000
  12.8380000  12.7890000  12.3370000  13.1460000  12.8540000  13.2410000
  11.9190000  12.5310000  12.4160000  12.7600000  12.7640000  12.4630000
  17.8580000  19.5130000  16.0940000  18.3720000  18.9130000  15.5540000
  17.5840000  20.2030000  15.4900000  17.8880000  19.5240000  15.9480000
  15.6340000  12.8970000  18.0050000  15.4560000  13.4870000  17.2730000
  16.1190000  12.1700000  17.6150000  15.6730000  12.8800000  17.8620000
   9.2390000  19.4870000  16.5820000   9.8360000  19.7430000  15.8780000
   9.5420000  19.9820000  17.3440000   9.3540000  19.5830000  16.5890000
  16.0600000  12.2820000   4.0040000  16.2880000  12.2540000   4.9330000
  15.4310000  11.5700000   3.8910000  16.0090000  12.1870000   4.1090000
  13.9760000  10.5680000   3.5100000  13.4160000  11.0160000   4.1440000
  13.8290000   9.6370000   3.6770000  13.8860000  10.5060000   3.6120000
  14.7940000  18.8090000  -7.2420000  14.6410000  19.2660000  -6.4150000
  15.5070000  18.1990000  -7.0500000  14.8660000  18.7890000  -7.1120000
  18.1900000  14.0180000   3.3630000  17.5870000  13.3760000   3.7380000
  18.9790000  13.9490000   3.9010000  18.2140000  13.9280000   3.4800000
  18.7270000  10.4550000   9.6410000  19.6200000  10.2260000   9.3770000
  18.2060000  10.3340000   8.8480000  18.7760000  10.4110000   9.5060000
  20.3010000  21.8400000  -3.1230000  19.8750000  21.2330000  -3.7270000
  19.6380000  22.5070000  -2.9450000  20.1620000  21.8480000  -3.1770000
  18.2680000  12.8910000  -7.8810000  18.0020000  12.4280000  -7.0860000
  18.2840000  12.2140000  -8.5570000  18.2360000  12.7450000  -7.8650000
  18.5030000  20.0790000   5.4030000  18.3750000  19.2140000   5.7920000
  18.9450000  19.9040000   4.5720000  18.5430000  19.9460000   5.3460000
   9.6270000  14.4090000   3.9600000   9.9040000  14.9780000   4.6780000
   9.0250000  13.7860000   4.3670000   9.5860000  14.4020000   4.1040000
  10.5000000  20.7450000   6.5530000   9.5790000  20.5260000   6.4130000
  10.5800000  20.8530000   7.5000000  10.3920000  20.7310000   6.6560000
  14.2010000  15.0150000  -2.4700000  13.7940000  15.0140000  -3.3370000
  13.7160000  15.6780000  -1.9790000  14.0880000  15.1000000  -2.5180000
  12.3200000  11.4110000   5.5480000  12.5280000  12.3090000   5.8050000
  11.9650000  11.0100000   6.3410000  12.3020000  11.4740000   5.6820000
  13.6290000  12.2020000  -3.7520000  12.8700000  12.1890000  -3.1670000
  14.1610000  11.4580000  -3.4710000  13.6000000  12.1050000  -3.6410000
  18.2890000  16.4010000  -3.9210000  17.4640000  16.3830000  -4.4060000
  18.0380000  16.2150000  -3.0160000  18.1510000  16.3750000  -3.8670000
  10.1900000  14.4130000   9.6010000   9.9920000  14.4940000   8.6690000
   9.3960000  14.7160000  10.0420000  10.0630000  14.4620000   9.5380000
  13.1140000  18.0230000  -9.2510000  12.5110000  18.7600000  -9.3470000
  13.7430000  18.3130000  -8.5900000  13.1160000  18.1540000  -9.1790000
  16.2640000  16.9760000   1.0240000  17.1450000  17.2680000   1.2560000
  16.3500000  16.6420000   0.1310000  16.3880000  16.9710000   0.9390000
  16.2100000  20.3240000   8.3940000  16.0520000  19.3800000   8.3580000
  16.1200000  20.6160000   7.4870000  16.1770000  20.2400000   8.2730000
  15.2690000  11.2940000  -8.9410000  15.6110000  11.3030000  -8.0470000
  14.7840000  12.1160000  -9.0190000  15.2510000  11.4010000  -8.8370000
  10.4380000  11.2100000   0.9630000  11.2720000  11.6640000   0.8390000
   9.8500000  11.6090000   0.3230000  10.4690000  11.3190000   0.8660000
  11.5370000  10.3430000   7.9750000  10.7040000   9.9160000   8.1760000
  11.5040000  11.1700000   8.4550000  11.4260000  10.3940000   8.0620000
  17.8720000  15.8050000  -1.2870000  17.9580000  15.0210000  -0.7440000
  18.3120000  16.4920000  -0.7870000  17.9390000  15.7930000  -1.1540000
  20.1050000  15.1460000  -7.8110000  19.4790000  14.4220000  -7.7870000
  20.3230000  15.3050000  -6.8930000  20.0530000  15.0740000  -7.6910000
  16.8430000  16.7940000   4.3090000  15.9980000  16.4740000   4.6260000
  17.3160000  16.0030000   4.0500000  16.7950000  16.6520000   4.3170000
  13.7690000  21.9800000   8.6430000  14.5810000  21.4920000   8.5010000
  13.5010000  22.2570000   7.7670000  13.8390000  21.9530000   8.5120000
  16.0320000  21.0200000   5.6710000  16.9120000  20.6470000   5.6190000
  15.4940000  20.4390000   5.1340000  16.0760000  20.8980000   5.5960000
  13.3150000  18.8550000   2.9460000  12.9380000  18.7270000   3.8160000
  12.7520000  18.3440000   2.3640000  13.1950000  18.7740000   2.9830000
  10.3050000  21.9310000  -0.7780000  10.6990000  21.8610000  -1.6480000
  10.9160000  21.4760000  -0.2010000  10.4340000  21.8640000  -0.8160000
  19.7760000  18.4750000  -4.9270000  19.1040000  17.7940000  -4.8970000
  19.8550000  18.6920000  -5.8560000  19.7000000  18.4160000  -5.0420000
  13.4630000  13.3280000   9.0360000  13.3100000  13.6080000   8.1340000
  13.2260000  14.0880000   9.5670000  13.4130000  13.4610000   8.9890000
  15.3960000  17.4490000   8.1420000  15.2810000  17.1650000   7.2350000
  14.5050000  17.5520000   8.4750000  15.2670000  17.4260000   8.0680000
  14.4410000  15.7760000   2.9880000  13.8510000  15.0370000   2.8360000
  15.0530000  15.7480000   2.2530000  14.4440000  15.6780000   2.8740000
  15.8260000  21.9680000   1.0200000  15.7860000  21.0130000   0.9830000
  15.3700000  22.1960000   1.8300000  15.7630000  21.8750000   1.1190000
   9.4090000  17.7230000  -5.1610000  10.0740000  18.3230000  -4.8230000
   8.5770000  18.1570000  -4.9720000   9.3880000  17.8550000  -5.0930000
  17.1560000  20.9040000  -7.8720000  16.7730000  20.5950000  -8.6930000
  17.3950000  21.8150000  -8.0470000  17.1380000  20.9810000  -7.9990000
  11.4120000  12.3590000  -2.1940000  11.1740000  11.5400000  -2.6280000
  10.6510000  12.9270000  -2.3210000  11.2840000  12.3270000  -2.2660000
  15.9830000  11.1740000  -6.1900000  16.2270000  10.2990000  -5.8890000
  15.7680000  11.6510000  -5.3890000  15.9870000  11.1230000  -6.0490000
  12.8200000  15.4390000  -8.1560000  11.8960000  15.1960000  -8.1180000
  12.8170000  16.3590000  -8.4210000  12.7030000  15.5260000  -8.1850000
  14.7900000  19.7920000  -4.8670000  15.6130000  20.2780000  -4.9050000
  14.8410000  19.2970000  -4.0500000  14.9020000  19.7910000  -4.7680000
  17.0850000  21.4290000  -4.8650000  16.5620000  22.1320000  -4.4790000
  17.0960000  21.6250000  -5.8010000  17.0200000  21.5440000  -4.9350000
  13.0220000  21.7320000   6.1290000  12.9840000  22.0490000   5.2270000
  12.1500000  21.3730000   6.2940000  12.9050000  21.7260000   6.0350000
  15.9560000  19.4290000   3.1830000  16.2810000  18.6260000   3.5900000
  15.0870000  19.1970000   2.8570000  15.8860000  19.2970000   3.1930000
  11.5720000  20.3630000   9.1520000  12.3750000  20.8730000   9.0420000
  11.1220000  20.7810000   9.8860000  11.6170000  20.4820000   9.2320000
  16.6920000  16.2570000  -7.8470000  16.2120000  15.4400000  -7.9780000
  17.1270000  16.4160000  -8.6850000  16.6870000  16.1730000  -7.9710000
  10.6570000  21.2940000  -7.3890000  11.4240000  20.9710000  -6.9140000
   9.9150000  21.0550000  -6.8340000  10.6600000  21.2220000  -7.2570000
   9.9950000  15.0500000   1.3070000  10.7930000  14.7000000   0.9120000
   9.9750000  14.6700000   2.1850000  10.0940000  14.9560000   1.3690000
  19.3890000  18.1070000  -0.9650000  18.9820000  18.8670000  -1.3810000
  20.2510000  18.0420000  -1.3750000  19.4470000  18.1960000  -1.0710000
  12.0790000  19.8370000   0.0200000  13.0370000  19.8210000   0.0010000
  11.8350000  19.0230000   0.4600000  12.1710000  19.7310000   0.0740000
  13.4810000  15.3610000  -5.1580000  13.3910000  15.0900000  -6.0710000
  12.5830000  15.5180000  -4.8650000  13.3540000  15.3470000  -5.2370000
  15.4270000  18.2770000  -2.7580000  15.6140000  17.5250000  -3.3200000
  16.2830000  18.6680000  -2.5880000  15.5600000  18.2310000  -2.8080000
  17.0830000  13.1370000   6.4820000  18.0050000  13.2130000   6.7260000
  16.6310000  13.7540000   7.0570000  17.1430000  13.2250000   6.5860000
  14.0740000  10.1470000  -0.5990000  14.2440000  11.0680000  -0.4000000
  14.6400000   9.6630000   0.0020000  14.1680000  10.2030000  -0.4970000
  14.9280000  19.2740000  -0.2060000  15.1850000  18.8560000  -1.0280000
  15.0120000  18.5820000   0.4500000  14.9720000  19.1320000  -0.2270000
  19.2990000  19.2510000  -7.5470000  20.0290000  19.8700000  -7.5580000
  18.5170000  19.8020000  -7.5780000  19.2920000  19.4010000  -7.5530000
  18.9310000  16.6320000   1.5690000  18.4820000  15.8780000   1.9510000
  19.6530000  16.2510000   1.0690000  18.9650000  16.4870000   1.5540000
  15.9540000  13.3690000  -4.4480000  15.8060000  14.3120000  -4.5260000
  15.1620000  13.0370000  -4.0240000  15.8340000  13.4470000  -4.4040000
  19.6050000  13.7130000   7.9710000  19.1390000  14.3110000   8.5550000
  20.2000000  14.2770000   7.4760000  19.6200000  13.8610000   7.9820000
  15.2100000  13.8580000  -7.8530000  14.2930000  13.6430000  -7.6870000
  15.6850000  13.4690000  -7.1180000  15.1530000  13.7810000  -7.7380000
  11.8520000  18.6040000   5.4180000  11.1730000  19.2430000   5.6380000
  11.4430000  17.7550000   5.5810000  11.7120000  18.5770000   5.4670000
  10.0000000  11.5130000   4.0000000  10.8610000  11.4740000   4.4140000
  10.1860000  11.6630000   3.0730000  10.1340000  11.5270000   3.9340000
   9.4590000  16.6840000   7.9870000   8.8590000  17.4170000   8.1280000
  10.0060000  16.6670000   8.7730000   9.4520000  16.7760000   8.1060000
  10.8150000  15.5850000  -3.9700000  11.2150000  16.1690000  -3.3260000
  10.3510000  16.1690000  -4.5690000  10.8070000  15.7350000  -3.9640000
  12.7750000  10.2640000  -7.9250000  12.7760000  11.0060000  -7.3210000
  13.2790000  10.5680000  -8.6790000  12.8400000  10.3980000  -7.9440000
  11.2040000  17.5210000   1.2180000  10.4260000  18.0270000   1.4490000
  10.9430000  16.6080000   1.3410000  11.0720000  17.4690000   1.2630000
  14.3010000  21.6780000  -1.6760000  14.2140000  22.4580000  -1.1270000
  14.3730000  20.9540000  -1.0530000  14.2990000  21.6850000  -1.5260000
   9.9320000  12.7620000  -6.4710000   9.8750000  12.5080000  -7.3920000
   9.3840000  13.5440000  -6.4030000   9.8550000  12.8300000  -6.5800000
  14.4030000  16.8190000   5.5080000  14.3120000  16.6990000   4.5630000
  13.6790000  17.3970000   5.7460000  14.2990000  16.8780000   5.4170000
  15.4850000  10.3350000  -3.0400000  15.0790000  10.0040000  -2.2380000
  15.5910000   9.5610000  -3.5920000  15.4470000  10.1940000  -3.0080000
  16.0280000  16.3810000  -5.1540000  16.4010000  16.3160000  -6.0330000
  15.1230000  16.0850000  -5.2550000  15.9600000  16.3340000  -5.2790000
  18.1730000  13.2780000  -2.7690000  17.3200000  13.1400000  -3.1810000
  18.2230000  14.2250000  -2.6330000  18.0700000  13.3820000  -2.8040000
  13.0440000  13.9460000   6.4220000  13.8360000  13.9790000   5.8850000
  12.6850000  14.8320000   6.3740000  13.1000000  14.0630000   6.3470000
  19.2180000  16.9490000  -9.5300000  19.1990000  17.5990000  -8.8280000
  19.5730000  16.1610000  -9.1180000  19.2610000  16.9320000  -9.3880000
  18.8910000  11.4520000  -4.6780000  18.6660000  12.2370000  -4.1790000
  19.7900000  11.6040000  -4.9700000  18.9770000  11.5720000  -4.6510000
  18.1460000  13.5870000   0.6070000  17.2950000  13.1560000   0.5200000
  18.2450000  13.7340000   1.5480000  18.0490000  13.5510000   0.7160000
  16.7770000  10.6080000   7.7580000  16.2240000  10.9190000   8.4740000
  16.8380000  11.3540000   7.1610000  16.7140000  10.7430000   7.7730000
  12.1210000  13.7420000   0.2210000  12.0270000  13.2750000  -0.6090000
  12.9440000  13.4190000   0.5860000  12.2140000  13.6410000   0.1620000
  14.2840000  13.0000000   1.4770000  14.7360000  12.4210000   2.0910000
  14.8470000  13.0150000   0.7040000  14.4140000  12.9280000   1.4570000
  10.8660000  16.1000000   5.7460000  10.3000000  16.4610000   5.0640000
  10.3700000  16.2160000   6.5560000  10.7300000  16.1610000   5.7620000
  13.2830000  21.8580000   3.3210000  12.8220000  22.2020000   2.5560000
  13.3640000  20.9200000   3.1490000  13.2340000  21.7820000   3.2010000
  11.4790000  19.4990000  -4.4940000  12.4350000  19.5310000  -4.4670000
  11.2080000  20.4160000  -4.4560000  11.5670000  19.6200000  -4.4860000
  16.3190000  14.9580000   8.4490000  15.5540000  14.5610000   8.8670000
  16.0640000  15.8690000   8.3010000  16.1880000  15.0240000   8.4840000
  12.8380000  12.7890000  -6.5230000  13.1460000  12.8540000  -5.6190000
  11.9190000  12.5310000  -6.4440000  12.7600000  12.7640000  -6.3970000
  17.8580000  19.5130000  -2.7660000  18.3720000  18.9130000  -3.3060000
  17.5840000  20.2030000  -3.3700000  17.8880000  19.5240000  -2.9120000
  15.6340000  12.8970000  -0.8550000  15.4560000  13.4870000  -1.5870000
  16.1190000  12.1700000  -1.2450000  15.6730000  12.8800000  -0.9980000
   9.2390000  19.4870000  -2.2780000   9.8360000  19.7430000  -2.9820000
   9.5420000  19.9820000  -1.5160000   9.3540000  19.5830000  -2.2710000
  18.5380000  17.4950000   6.4130000  17.7840000  17.1650000   5.9240000
  18.3370000  17.2970000   7.3270000  18.4160000  17.4270000   6.4670000
  16.0600000  12.2820000 -14.8560000  16.2880000  12.2540000 -13.9270000
  15.4310000  11.5700000 -14.9690000  16.0090000  12.1870000 -14.7510000
  13.9760000  10.5680000 -15.3500000  13.4160000  11.0160000 -14.7160000
  13.8290000   9.6370000 -15.1830000  13.8860000  10.5060000 -15.2480000
  18.1900000  14.0180000 -15.4970000  17.5870000  13.3760000 -15.1220000
  18.9790000  13.9490000 -14.9590000  18.2140000  13.9280000 -15.3800000
  18.7270000  10.4550000  -9.2190000  19.6200000  10.2260000  -9.4830000
  18.2060000  10.3340000 -10.0120000  18.7760000  10.4110000  -9.3540000
  18.5030000  20.0790000 -13.4570000  18.3750000  19.2140000 -13.0680000
  18.9450000  19.9040000 -14.2880000  18.5430000  19.9460000 -13.5140000
   9.6270000  14.4090000 -14.9000000   9.9040000  14.9780000 -14.1820000
   9.0250000  13.7860000 -14.4930000   9.5860000  14.4020000 -14.7560000
  10.5000000  20.7450000 -12.3070000   9.5790000  20.5260000 -12.4470000
  10.5800000  20.8530000 -11.3600000  10.3920000  20.7310000 -12.2040000
  12.3200000  11.4110000 -13.3120000  12.5280000  12.3090000 -13.0550000
  11.9650000  11.0100000 -12.5190000  12.3020000  11.4740000 -13.1780000
  10.1900000  14.4130000  -9.2590000   9.9920000  14.4940000 -10.1910000
   9.3960000  14.7160000  -8.8180000  10.0630000  14.4620000  -9.3220000
  16.2640000  16.9760000 -17.8360000  17.1450000  17.2680000 -17.6040000
  16.3500000  16.6420000 -18.7290000  16.3880000  16.9710000 -17.9210000
  16.2100000  20.3240000 -10.4660000  16.0520000  19.3800000 -10.5020000
  16.1200000  20.6160000 -11.3730000  16.1770000  20.2400000 -10.5870000
  10.4380000  11.2100000 -17.8970000  11.2720000  11.6640000 -18.0210000
   9.8500000  11.6090000 -18.5370000  10.4690000  11.3190000 -17.9940000
  11.5370000  10.3430000 -10.8850000  10.7040000   9.9160000 -10.6840000
  11.5040000  11.1700000 -10.4050000  11.4260000  10.3940000 -10.7980000
  16.8430000  16.7940000 -14.5510000  15.9980000  16.4740000 -14.2340000
  17.3160000  16.0030000 -14.8100000  16.7950000  16.6520000 -14.5430000
  13.7690000  21.9800000 -10.2170000  14.5810000  21.4920000 -10.3590000
  13.5010000  22.2570000 -11.0930000  13.8390000  21.9530000 -10.3480000
  16.0320000  21.0200000 -13.1890000  16.9120000  20.6470000 -13.2410000
  15.4940000  20.4390000 -13.7260000  16.0760000  20.8980000 -13.2640000
  13.3150000  18.8550000 -15.9140000  12.9380000  18.7270000 -15.0440000
  12.7520000  18.3440000 -16.4960000  13.1950000  18.7740000 -15.8770000
  13.4630000  13.3280000  -9.8240000  13.3100000  13.6080000 -10.7260000
  13.2260000  14.0880000  -9.2930000  13.4130000  13.4610000  -9.8710000
  15.3960000  17.4490000 -10.7180000  15.2810000  17.1650000 -11.6250000
  14.5050000  17.5520000 -10.3850000  15.2670000  17.4260000 -10.7920000
  14.4410000  15.7760000 -15.8720000  13.8510000  15.0370000 -16.0240000
  15.0530000  15.7480000 -16.6070000  14.4440000  15.6780000 -15.9860000
  15.8260000  21.9680000 -17.8400000  15.7860000  21.0130000 -17.8770000
  15.3700000  22.1960000 -17.0300000  15.7630000  21.8750000 -17.7410000
  13.0220000  21.7320000 -12.7310000  12.9840000  22.0490000 -13.6330000
  12.1500000  21.3730000 -12.5660000  12.9050000  21.7260000 -12.8250000
  15.9560000  19.4290000 -15.6770000  16.2810000  18.6260000 -15.2700000
  15.0870000  19.1970000 -16.0030000  15.8860000  19.2970000 -15.6670000
  11.5720000  20.3630000  -9.7080000  12.3750000  20.8730000  -9.8180000
  11.1220000  20.7810000  -8.9740000  11.6170000  20.4820000  -9.6280000
   9.9950000  15.0500000 -17.5530000  10.7930000  14.7000000 -17.9480000
   9.9750000  14.6700000 -16.6750000  10.0940000  14.9560000 -17.4910000
  12.0790000  19.8370000 -18.8400000  13.0370000  19.8210000 -18.8590000
  11.8350000  19.0230000 -18.4000000  12.1710000  19.7310000 -18.7860000
  17.0830000  13.1370000 -12.3780000  18.0050000  13.2130000 -12.1340000
  16.6310000  13.7540000 -11.8030000  17.1430000  13.2250000 -12.2740000
  14.0740000  10.1470000 -19.4590000  14.2440000  11.0680000 -19.2600000
  14.6400000   9.6630000 -18.8580000  14.1680000  10.2030000 -19.3570000
  18.9310000  16.6320000 -17.2910000  18.4820000  15.8780000 -16.9090000
  19.6530000  16.2510000 -17.7910000  18.9650000  16.4870000 -17.3060000
  19.6050000  13.7130000 -10.8890000  19.1390000  14.3110000 -10.3050000
  20.2000000  14.2770000 -11.3840000  19.6200000  13.8610000 -10.8780000
  11.8520000  18.6040000 -13.4420000  11.1730000  19.2430000 -13.2220000
  11.4430000  17.7550000 -13.2790000  11.7120000  18.5770000 -13.3930000
  10.0000000  11.5130000 -14.8600000  10.8610000  11.4740000 -14.4460000
  10.1860000  11.6630000 -15.7870000  10.1340000  11.5270000 -14.9260000
   9.4590000  16.6840000 -10.8730000   8.8590000  17.4170000 -10.7320000
  10.0060000  16.6670000 -10.0870000   9.4520000  16.7760000 -10.7540000
  11.2040000  17.5210000 -17.6420000  10.4260000  18.0270000 -17.4110000
  10.9430000  16.6080000 -17.5190000  11.0720000  17.4690000 -17.5970000
  14.4030000  16.8190000 -13.3520000  14.3120000  16.6990000 -14.2970000
  13.6790000  17.3970000 -13.1140000  14.2990000  16.8780000 -13.4430000
  13.0440000  13.9460000 -12.4380000  13.8360000  13.9790000 -12.9750000
  12.6850000  14.8320000 -12.4860000  13.1000000  14.0630000 -12.5130000
  18.1460000  13.5870000 -18.2530000  17.2950000  13.1560000 -18.3400000
  18.2450000  13.7340000 -17.3120000  18.0490000  13.5510000 -18.1440000
  16.7770000  10.6080000 -11.1020000  16.2240000  10.9190000 -10.3860000
  16.8380000  11.3540000 -11.6990000  16.7140000  10.7430000 -11.0870000
  12.1210000  13.7420000 -18.6390000  12.0270000  13.2750000 -19.4690000
  12.9440000  13.4190000 -18.2740000  12.2140000  13.6410000 -18.6980000
  14.2840000  13.0000000 -17.3830000  14.7360000  12.4210000 -16.7690000
  14.8470000  13.0150000 -18.1560000  14.4140000  12.9280000 -17.4030000
  10.8660000  16.1000000 -13.1140000  10.3000000  16.4610000 -13.7960000
  10.3700000  16.2160000 -12.3040000  10.7300000  16.1610000 -13.0980000
  13.2830000  21.8580000 -15.5390000  12.8220000  22.2020000 -16.3040000
  13.3640000  20.9200000 -15.7110000  13.2340000  21.7820000 -15.6590000
  16.3190000  14.9580000 -10.4110000  15.5540000  14.5610000  -9.9930000
  16.0640000  15.8690000 -10.5590000  16.1880000  15.0240000 -10.3760000
  18.5380000  17.4950000 -12.4470000  17.7840000  17.1650000 -12.9360000
  18.3370000  17.2970000 -11.5330000  18.4160000  17.4270000 -12.3930000
  18.2240000   5.0450000  16.2870000  18.0500000   5.2060000  17.2150000
  17.4590000   4.5590000  15.9810000  18.1040000   5.0030000  16.3670000
  14.7940000  -0.0580000  11.6180000  14.6410000   0.3990000  12.4450000
  15.5070000  -0.6680000  11.8100000  14.8660000  -0.0780000  11.7480000
  11.6820000   6.1980000  16.5810000  11.7190000   7.0910000  16.2370000
  10.8830000   6.1770000  17.1070000  11.5850000   6.3100000  16.6040000
  16.3930000   7.9880000  13.2700000  15.5940000   7.4610000  13.2800000
  16.7370000   7.8850000  12.3830000  16.3350000   7.9070000  13.1580000
  20.3010000   2.9730000  15.7370000  19.8750000   2.3660000  15.1330000
  19.6380000   3.6400000  15.9150000  20.1620000   2.9810000  15.6830000
  18.2680000  -5.9760000  10.9790000  18.0020000  -6.4390000  11.7740000
  18.2840000  -6.6530000  10.3030000  18.2360000  -6.1220000  10.9950000
  14.2010000  -3.8520000  16.3900000  13.7940000  -3.8530000  15.5230000
  13.7160000  -3.1890000  16.8810000  14.0880000  -3.7680000  16.3420000
  13.6290000  -6.6650000  15.1080000  12.8700000  -6.6780000  15.6930000
  14.1610000  -7.4090000  15.3890000  13.6000000  -6.7630000  15.2190000
  18.2890000  -2.4660000  14.9390000  17.4640000  -2.4850000  14.4540000
  18.0380000  -2.6520000  15.8440000  18.1510000  -2.4920000  14.9930000
  13.6410000   5.3920000  18.2710000  12.9160000   5.6950000  17.7230000
  14.2350000   6.1420000  18.3190000  13.6250000   5.5270000  18.2070000
  13.1140000  -0.8440000   9.6090000  12.5110000  -0.1070000   9.5130000
  13.7430000  -0.5540000  10.2700000  13.1160000  -0.7130000   9.6810000
  17.5410000   7.6180000  10.9020000  18.0000000   6.7960000  11.0740000
  18.2390000   8.2580000  10.7630000  17.6890000   7.5950000  10.9060000
  15.2690000  -7.5730000   9.9190000  15.6110000  -7.5640000  10.8130000
  14.7840000  -6.7510000   9.8410000  15.2510000  -7.4660000  10.0230000
  17.8720000  -3.0620000  17.5730000  17.9580000  -3.8460000  18.1160000
  18.3120000  -2.3750000  18.0730000  17.9390000  -3.0750000  17.7060000
  10.9470000   9.1600000  14.0920000  10.1660000   9.0290000  13.5540000
  10.9160000  10.0850000  14.3360000  10.8430000   9.2620000  14.0540000
  17.3000000   5.4260000  18.7820000  16.8200000   4.6180000  18.9590000
  18.0300000   5.4120000  19.4010000  17.3320000   5.3210000  18.8840000
  20.1050000  -3.7220000  11.0490000  19.4790000  -4.4450000  11.0730000
  20.3230000  -3.5620000  11.9670000  20.0530000  -3.7930000  11.1690000
  12.6780000   7.6850000  12.6260000  12.0960000   8.1830000  13.1990000
  12.9070000   8.2960000  11.9260000  12.6330000   7.8270000  12.6100000
  10.3050000   3.0640000  18.0820000  10.6990000   2.9940000  17.2120000
  10.9160000   2.6090000  18.6590000  10.4340000   2.9970000  18.0440000
  19.7760000  -0.3920000  13.9330000  19.1040000  -1.0730000  13.9630000
  19.8550000  -0.1750000  13.0040000  19.7000000  -0.4510000  13.8180000
   9.4090000  -1.1440000  13.6990000  10.0740000  -0.5440000  14.0370000
   8.5770000  -0.7100000  13.8880000   9.3880000  -1.0120000  13.7670000
  11.7420000   3.3010000  15.9010000  12.4210000   3.0210000  16.5150000
  11.8400000   4.2510000  15.8520000  11.8410000   3.3870000  15.9740000
  17.1560000   2.0370000  10.9880000  16.7730000   1.7280000  10.1670000
  17.3950000   2.9480000  10.8130000  17.1380000   2.1140000  10.8610000
  11.4120000  -6.5080000  16.6660000  11.1740000  -7.3270000  16.2320000
  10.6510000  -5.9410000  16.5390000  11.2840000  -6.5400000  16.5940000
  15.9830000  -7.6930000  12.6700000  16.2270000  -8.5690000  12.9710000
  15.7680000  -7.2160000  13.4710000  15.9870000  -7.7440000  12.8110000
  12.8200000  -3.4280000  10.7040000  11.8960000  -3.6720000  10.7420000
  12.8170000  -2.5080000  10.4390000  12.7030000  -3.3410000  10.6750000
  14.7900000   0.9250000  13.9930000  15.6130000   1.4110000  13.9550000
  14.8410000   0.4300000  14.8100000  14.9020000   0.9240000  14.0920000
  11.4810000   8.8000000  18.0690000  10.9390000   9.2230000  18.7360000
  12.3800000   8.9960000  18.3310000  11.5260000   8.8800000  18.1880000
  17.0850000   2.5620000  13.9950000  16.5620000   3.2650000  14.3810000
  17.0960000   2.7580000  13.0590000  17.0200000   2.6770000  13.9250000
  16.6920000  -2.6100000  11.0130000  16.2120000  -3.4270000  10.8820000
  17.1270000  -2.4510000  10.1750000  16.6870000  -2.6950000  10.8890000
  10.6570000   2.4270000  11.4710000  11.4240000   2.1040000  11.9460000
   9.9150000   2.1880000  12.0260000  10.6600000   2.3550000  11.6030000
  19.3890000  -0.7600000  17.8950000  18.9820000   0.0000000  17.4790000
  20.2510000  -0.8250000  17.4850000  19.4470000  -0.6710000  17.7890000
  12.0790000   0.9700000  18.8800000  13.0370000   0.9540000  18.8610000
  11.8350000   0.1560000  19.3200000  12.1710000   0.8640000  18.9340000
  13.4810000  -3.5070000  13.7020000  13.3910000  -3.7770000  12.7890000
  12.5830000  -3.3500000  13.9950000  13.3540000  -3.5200000  13.6230000
  15.4270000  -0.5900000  16.1020000  15.6140000  -1.3420000  15.5400000
  16.2830000  -0.1990000  16.2720000  15.5600000  -0.6360000  16.0520000
  14.0740000  -8.7210000  18.2610000  14.2440000  -7.7990000  18.4600000
  14.6400000  -9.2040000  18.8620000  14.1680000  -8.6650000  18.3630000
  17.8770000   4.6170000  10.3850000  18.7210000   4.5790000  10.8360000
  18.1000000   4.8220000   9.4770000  18.0140000   4.6380000  10.3270000
  14.9280000   0.4070000  18.6540000  15.1850000  -0.0110000  17.8320000
  15.0120000  -0.2850000  19.3100000  14.9720000   0.2650000  18.6330000
  19.6300000   9.2760000  16.4520000  19.4450000   8.4490000  16.0060000
  19.3170000   9.9490000  15.8470000  19.5660000   9.2560000  16.3170000
  17.4200000   9.6560000  18.6250000  17.3860000   8.9690000  19.2900000
  17.8960000   9.2610000  17.8950000  17.4760000   9.5180000  18.6170000
  19.2990000   0.3840000  11.3130000  20.0290000   1.0040000  11.3020000
  18.5170000   0.9350000  11.2820000  19.2920000   0.5340000  11.3070000
  15.9540000  -5.4980000  14.4120000  15.8060000  -4.5560000  14.3340000
  15.1620000  -5.8310000  14.8360000  15.8340000  -5.4200000  14.4560000
  15.2100000  -5.0090000  11.0070000  14.2930000  -5.2240000  11.1730000
  15.6850000  -5.3980000  11.7420000  15.1530000  -5.0870000  11.1220000
  10.8150000  -3.2820000  14.8900000  11.2150000  -2.6970000  15.5340000
  10.3510000  -2.6970000  14.2910000  10.8070000  -3.1320000  14.8960000
  12.7750000  -8.6040000  10.9350000  12.7760000  -7.8620000  11.5390000
  13.2790000  -8.3000000  10.1810000  12.8400000  -8.4700000  10.9160000
  13.6910000   3.4330000  11.2190000  13.7770000   3.3820000  10.2670000
  13.1380000   4.2010000  11.3680000  13.6310000   3.5250000  11.1160000
  14.3010000   2.8110000  17.1840000  14.2140000   3.5910000  17.7330000
  14.3730000   2.0870000  17.8070000  14.2990000   2.8180000  17.3340000
   9.9320000  -6.1060000  12.3890000   9.8750000  -6.3590000  11.4680000
   9.3840000  -5.3230000  12.4570000   9.8550000  -6.0370000  12.2800000
  15.4850000  -8.5330000  15.8200000  15.0790000  -8.8640000  16.6220000
  15.5910000  -9.3070000  15.2680000  15.4470000  -8.6740000  15.8520000
  16.0280000  -2.4860000  13.7060000  16.4010000  -2.5510000  12.8270000
  15.1230000  -2.7820000  13.6050000  15.9600000  -2.5330000  13.5810000
  15.7260000   4.6710000  12.1400000  14.9940000   4.1820000  11.7640000
  16.3870000   4.6840000  11.4480000  15.7160000   4.6100000  12.0040000
  18.1730000  -5.5890000  16.0910000  17.3200000  -5.7270000  15.6790000
  18.2230000  -4.6420000  16.2270000  18.0700000  -5.4860000  16.0560000
  19.2180000  -1.9180000   9.3300000  19.1990000  -1.2680000  10.0320000
  19.5730000  -2.7070000   9.7420000  19.2610000  -1.9350000   9.4720000
  18.8910000  -7.4150000  14.1820000  18.6660000  -6.6310000  14.6810000
  19.7900000  -7.2630000  13.8900000  18.9770000  -7.2950000  14.2090000
  15.5680000   4.2540000  15.3030000  14.9320000   3.7990000  15.8540000
  15.0790000   4.9880000  14.9300000  15.4250000   4.2900000  15.3260000
  12.1210000  -5.1250000  19.0810000  12.0270000  -5.5930000  18.2510000
  12.9440000  -5.4480000  19.4460000  12.2140000  -5.2260000  19.0220000
  18.6820000   7.2770000  14.7520000  18.4440000   6.4640000  15.1960000
  17.8770000   7.5550000  14.3150000  18.5490000   7.2090000  14.7530000
  11.4790000   0.6320000  14.3660000  12.4350000   0.6640000  14.3930000
  11.2080000   1.5490000  14.4040000  11.5670000   0.7530000  14.3740000
  12.8380000  -6.0780000  12.3370000  13.1460000  -6.0130000  13.2410000
  11.9190000  -6.3370000  12.4160000  12.7600000  -6.1030000  12.4630000
   8.7670000   4.2350000  10.6820000   9.3950000   3.7120000  11.1810000
   9.2610000   4.5410000   9.9210000   8.9110000   4.2070000  10.6490000
  14.4390000   6.3190000  13.9530000  13.7390000   6.7170000  13.4360000
  14.8700000   5.7160000  13.3470000  14.4050000   6.2930000  13.8090000
  17.8580000   0.6460000  16.0940000  18.3720000   0.0460000  15.5540000
  17.5840000   1.3360000  15.4900000  17.8880000   0.6570000  15.9480000
  10.3440000   8.0010000  10.1400000  10.9020000   7.2420000  10.3120000
  10.9130000   8.7550000  10.2960000  10.4890000   8.0000000  10.1820000
  15.6340000  -5.9710000  18.0050000  15.4560000  -5.3800000  17.2730000
  16.1190000  -6.6980000  17.6150000  15.6730000  -5.9870000  17.8620000
   9.2390000   0.6200000  16.5820000   9.8360000   0.8760000  15.8780000
   9.5420000   1.1150000  17.3440000   9.3540000   0.7160000  16.5890000
  16.0600000  -6.5860000   4.0040000  16.2880000  -6.6130000   4.9330000
  15.4310000  -7.2980000   3.8910000  16.0090000  -6.6810000   4.1090000
  13.4590000   7.6010000   4.2640000  12.5050000   7.5330000   4.2320000
  13.6480000   7.9080000   5.1500000  13.3610000   7.6320000   4.3730000
  18.2240000   5.0450000  -2.5730000  18.0500000   5.2060000  -1.6450000
  17.4590000   4.5590000  -2.8790000  18.1040000   5.0030000  -2.4930000
  13.9760000  -8.3000000   3.5100000  13.4160000  -7.8520000   4.1440000
  13.8290000  -9.2310000   3.6770000  13.8860000  -8.3620000   3.6120000
  14.7940000  -0.0580000  -7.2420000  14.6410000   0.3990000  -6.4150000
  15.5070000  -0.6680000  -7.0500000  14.8660000  -0.0780000  -7.1120000
  18.1900000  -4.8490000   3.3630000  17.5870000  -5.4900000   3.7380000
  18.9790000  -4.9180000   3.9010000  18.2140000  -4.9390000   3.4800000
  18.7270000  -8.4130000   9.6410000  19.6200000  -8.6420000   9.3770000
  18.2060000  -8.5340000   8.8480000  18.7760000  -8.4570000   9.5060000
  11.6820000   6.1980000  -2.2790000  11.7190000   7.0910000  -2.6230000
  10.8830000   6.1770000  -1.7530000  11.5850000   6.3100000  -2.2560000
  16.3930000   7.9880000  -5.5900000  15.5940000   7.4610000  -5.5800000
  16.7370000   7.8850000  -6.4770000  16.3350000   7.9070000  -5.7020000
  20.3010000   2.9730000  -3.1230000  19.8750000   2.3660000  -3.7270000
  19.6380000   3.6400000  -2.9450000  20.1620000   2.9810000  -3.1770000
  18.2680000  -5.9760000  -7.8810000  18.0020000  -6.4390000  -7.0860000
  18.2840000  -6.6530000  -8.5570000  18.2360000  -6.1220000  -7.8650000
  18.5030000   1.2120000   5.4030000  18.3750000   0.3470000   5.7920000
  18.9450000   1.0370000   4.5720000  18.5430000   1.0790000   5.3460000
   9.6270000  -4.4580000   3.9600000   9.9040000  -3.8890000   4.6780000
   9.0250000  -5.0810000   4.3670000   9.5860000  -4.4650000   4.1040000
  10.5000000   1.8790000   6.5530000   9.5790000   1.6590000   6.4130000
  10.5800000   1.9860000   7.5000000  10.3920000   1.8640000   6.6560000
  14.2010000  -3.8520000  -2.4700000  13.7940000  -3.8530000  -3.3370000
  13.7160000  -3.1890000  -1.9790000  14.0880000  -3.7680000  -2.5180000
  12.3200000  -7.4570000   5.5480000  12.5280000  -6.5580000   5.8050000
  11.9650000  -7.8580000   6.3410000  12.3020000  -7.3930000   5.6820000
  13.6290000  -6.6650000  -3.7520000  12.8700000  -6.6780000  -3.1670000
  14.1610000  -7.4090000  -3.4710000  13.6000000  -6.7630000  -3.6410000
  18.2890000  -2.4660000  -3.9210000  17.4640000  -2.4850000  -4.4060000
  18.0380000  -2.6520000  -3.0160000  18.1510000  -2.4920000  -3.8670000
  15.4030000   7.1990000   0.6960000  15.1420000   6.8240000   1.5370000
  16.1340000   6.6540000   0.4070000  15.4630000   7.0810000   0.7660000
  13.6410000   5.3920000  -0.5890000  12.9160000   5.6950000  -1.1370000
  14.2350000   6.1420000  -0.5410000  13.6250000   5.5270000  -0.6530000
  10.1900000  -4.4540000   9.6010000   9.9920000  -4.3730000   8.6690000
   9.3960000  -4.1510000  10.0420000  10.0630000  -4.4060000   9.5380000
  13.1140000  -0.8440000  -9.2510000  12.5110000  -0.1070000  -9.3470000
  13.7430000  -0.5540000  -8.5900000  13.1160000  -0.7130000  -9.1790000
  17.5410000   7.6180000  -7.9580000  18.0000000   6.7960000  -7.7860000
  18.2390000   8.2580000  -8.0970000  17.6890000   7.5950000  -7.9540000
  16.2640000  -1.8910000   1.0240000  17.1450000  -1.5990000   1.2560000
  16.3500000  -2.2250000   0.1310000  16.3880000  -1.8960000   0.9390000
  10.1580000   4.5720000   8.3580000   9.3960000   5.1400000   8.2410000
  10.3630000   4.2620000   7.4760000  10.0860000   4.6050000   8.2300000
  12.2290000   5.8670000   9.6950000  12.7120000   6.4280000   9.0880000
  11.7860000   5.2310000   9.1340000  12.2340000   5.8580000   9.5460000
  15.8540000   7.6030000   8.4930000  16.4290000   7.5160000   9.2540000
  15.8130000   8.5450000   8.3310000  15.9230000   7.7120000   8.5690000
  16.2100000   1.4570000   8.3940000  16.0520000   0.5130000   8.3580000
  16.1200000   1.7490000   7.4870000  16.1770000   1.3730000   8.2730000
  13.2360000   7.3540000   7.4080000  12.9840000   8.2580000   7.5990000
  14.1410000   7.2890000   7.7110000  13.3200000   7.4620000   7.4710000
  15.2690000  -7.5730000  -8.9410000  15.6110000  -7.5640000  -8.0470000
  14.7840000  -6.7510000  -9.0190000  15.2510000  -7.4660000  -8.8370000
  10.4380000  -7.6570000   0.9630000  11.2720000  -7.2030000   0.8390000
   9.8500000  -7.2580000   0.3230000  10.4690000  -7.5480000   0.8660000
  11.5370000  -8.5250000   7.9750000  10.7040000  -8.9510000   8.1760000
  11.5040000  -7.6980000   8.4550000  11.4260000  -8.4740000   8.0620000
  17.8720000  -3.0620000  -1.2870000  17.9580000  -3.8460000  -0.7440000
  18.3120000  -2.3750000  -0.7870000  17.9390000  -3.0750000  -1.1540000
  10.9470000   9.1600000  -4.7680000  10.1660000   9.0290000  -5.3060000
  10.9160000  10.0850000  -4.5240000  10.8430000   9.2620000  -4.8060000
  17.3000000   5.4260000  -0.0780000  16.8200000   4.6180000   0.0990000
  18.0300000   5.4120000   0.5410000  17.3320000   5.3210000   0.0240000
  20.1050000  -3.7220000  -7.8110000  19.4790000  -4.4450000  -7.7870000
  20.3230000  -3.5620000  -6.8930000  20.0530000  -3.7930000  -7.6910000
  16.8430000  -2.0730000   4.3090000  15.9980000  -2.3930000   4.6260000
  17.3160000  -2.8640000   4.0500000  16.7950000  -2.2150000   4.3170000
  13.7690000   3.1130000   8.6430000  14.5810000   2.6250000   8.5010000
  13.5010000   3.3900000   7.7670000  13.8390000   3.0860000   8.5120000
  12.6780000   7.6850000  -6.2340000  12.0960000   8.1830000  -5.6610000
  12.9070000   8.2960000  -6.9340000  12.6330000   7.8270000  -6.2500000
  16.0320000   2.1530000   5.6710000  16.9120000   1.7800000   5.6190000
  15.4940000   1.5720000   5.1340000  16.0760000   2.0310000   5.5960000
  13.3150000  -0.0120000   2.9460000  12.9380000  -0.1390000   3.8160000
  12.7520000  -0.5230000   2.3640000  13.1950000  -0.0930000   2.9830000
  10.3050000   3.0640000  -0.7780000  10.6990000   2.9940000  -1.6480000
  10.9160000   2.6090000  -0.2010000  10.4340000   2.9970000  -0.8160000
  19.7760000  -0.3920000  -4.9270000  19.1040000  -1.0730000  -4.8970000
  19.8550000  -0.1750000  -5.8560000  19.7000000  -0.4510000  -5.0420000
  13.4630000  -5.5390000   9.0360000  13.3100000  -5.2590000   8.1340000
  13.2260000  -4.7790000   9.5670000  13.4130000  -5.4070000   8.9890000
  15.3960000  -1.4180000   8.1420000  15.2810000  -1.7020000   7.2350000
  14.5050000  -1.3150000   8.4750000  15.2670000  -1.4410000   8.0680000
  14.4410000  -3.0920000   2.9880000  13.8510000  -3.8300000   2.8360000
  15.0530000  -3.1190000   2.2530000  14.4440000  -3.1890000   2.8740000
  15.8260000   3.1010000   1.0200000  15.7860000   2.1460000   0.9830000
  15.3700000   3.3290000   1.8300000  15.7630000   3.0080000   1.1190000
   9.4090000  -1.1440000  -5.1610000  10.0740000  -0.5440000  -4.8230000
   8.5770000  -0.7100000  -4.9720000   9.3880000  -1.0120000  -5.0930000
  11.7420000   3.3010000  -2.9590000  12.4210000   3.0210000  -2.3450000
  11.8400000   4.2510000  -3.0080000  11.8410000   3.3870000  -2.8860000
  17.1560000   2.0370000  -7.8720000  16.7730000   1.7280000  -8.6930000
  17.3950000   2.9480000  -8.0470000  17.1380000   2.1140000  -7.9990000
  11.4120000  -6.5080000  -2.1940000  11.1740000  -7.3270000  -2.6280000
  10.6510000  -5.9410000  -2.3210000  11.2840000  -6.5400000  -2.2660000
  15.9830000  -7.6930000  -6.1900000  16.2270000  -8.5690000  -5.8890000
  15.7680000  -7.2160000  -5.3890000  15.9870000  -7.7440000  -6.0490000
  19.6690000   5.7120000   1.4300000  19.6050000   5.1920000   2.2320000
  20.2140000   6.4610000   1.6730000  19.7300000   5.7410000   1.5640000
  12.8200000  -3.4280000  -8.1560000  11.8960000  -3.6720000  -8.1180000
  12.8170000  -2.5080000  -8.4210000  12.7030000  -3.3410000  -8.1850000
  14.7900000   0.9250000  -4.8670000  15.6130000   1.4110000  -4.9050000
  14.8410000   0.4300000  -4.0500000  14.9020000   0.9240000  -4.7680000
  11.4810000   8.8000000  -0.7910000  10.9390000   9.2230000  -0.1240000
  12.3800000   8.9960000  -0.5290000  11.5260000   8.8800000  -0.6720000
  17.0850000   2.5620000  -4.8650000  16.5620000   3.2650000  -4.4790000
  17.0960000   2.7580000  -5.8010000  17.0200000   2.6770000  -4.9350000
  13.0220000   2.8650000   6.1290000  12.9840000   3.1820000   5.2270000
  12.1500000   2.5060000   6.2940000  12.9050000   2.8590000   6.0350000
  16.9300000   4.6050000   4.7040000  16.1470000   5.0110000   4.3350000
  16.6420000   3.7340000   4.9770000  16.7930000   4.5450000   4.6920000
  10.6680000   6.6170000   1.4470000  11.3230000   6.9780000   0.8500000
   9.9900000   6.2620000   0.8720000  10.6650000   6.6180000   1.2970000
  15.9560000   0.5620000   3.1830000  16.2810000  -0.2410000   3.5900000
  15.0870000   0.3300000   2.8570000  15.8860000   0.4300000   3.1930000
  11.5720000   1.4960000   9.1520000  12.3750000   2.0060000   9.0420000
  11.1220000   1.9140000   9.8860000  11.6170000   1.6150000   9.2320000
  16.6920000  -2.6100000  -7.8470000  16.2120000  -3.4270000  -7.9780000
  17.1270000  -2.4510000  -8.6850000  16.6870000  -2.6950000  -7.9710000
  10.6570000   2.4270000  -7.3890000  11.4240000   2.1040000  -6.9140000
   9.9150000   2.1880000  -6.8340000  10.6600000   2.3550000  -7.2570000
   9.9950000  -3.8170000   1.3070000  10.7930000  -4.1670000   0.9120000
   9.9750000  -4.1970000   2.1850000  10.0940000  -3.9120000   1.3690000
  19.3890000  -0.7600000  -0.9650000  18.9820000   0.0000000  -1.3810000
  20.2510000  -0.8250000  -1.3750000  19.4470000  -0.6710000  -1.0710000
  12.0790000   0.9700000   0.0200000  13.0370000   0.9540000   0.0010000
  11.8350000   0.1560000   0.4600000  12.1710000   0.8640000   0.0740000
  19.4570000   4.3330000   3.8680000  19.8500000   5.1540000   4.1640000
  18.5440000   4.3880000   4.1500000  19.3910000   4.4450000   3.9420000
  13.4810000  -3.5070000  -5.1580000  13.3910000  -3.7770000  -6.0710000
  12.5830000  -3.3500000  -4.8650000  13.3540000  -3.5200000  -5.2370000
  15.4270000  -0.5900000  -2.7580000  15.6140000  -1.3420000  -3.3200000
  16.2830000  -0.1990000  -2.5880000  15.5600000  -0.6360000  -2.8080000
  17.0830000  -5.7310000   6.4820000  18.0050000  -5.6540000   6.7260000
  16.6310000  -5.1130000   7.0570000  17.1430000  -5.6420000   6.5860000
  14.0740000  -8.7210000  -0.5990000  14.2440000  -7.7990000  -0.4000000
  14.6400000  -9.2040000   0.0020000  14.1680000  -8.6650000  -0.4970000
  17.8770000   4.6170000  -8.4750000  18.7210000   4.5790000  -8.0240000
  18.1000000   4.8220000  -9.3830000  18.0140000   4.6380000  -8.5330000
  14.9280000   0.4070000  -0.2060000  15.1850000  -0.0110000  -1.0280000
  15.0120000  -0.2850000   0.4500000  14.9720000   0.2650000  -0.2270000
  19.6300000   9.2760000  -2.4080000  19.4450000   8.4490000  -2.8540000
  19.3170000   9.9490000  -3.0130000  19.5660000   9.2560000  -2.5430000
  17.4200000   9.6560000  -0.2350000  17.3860000   8.9690000   0.4300000
  17.8960000   9.2610000  -0.9650000  17.4760000   9.5180000  -0.2430000
  19.2990000   0.3840000  -7.5470000  20.0290000   1.0040000  -7.5580000
  18.5170000   0.9350000  -7.5780000  19.2920000   0.5340000  -7.5530000
  18.9310000  -2.2350000   1.5690000  18.4820000  -2.9890000   1.9510000
  19.6530000  -2.6150000   1.0690000  18.9650000  -2.3800000   1.5540000
  15.9540000  -5.4980000  -4.4480000  15.8060000  -4.5560000  -4.5260000
  15.1620000  -5.8310000  -4.0240000  15.8340000  -5.4200000  -4.4040000
  19.6050000  -5.1540000   7.9710000  19.1390000  -4.5560000   8.5550000
  20.2000000  -4.5900000   7.4760000  19.6200000  -5.0060000   7.9820000
  15.2100000  -5.0090000  -7.8530000  14.2930000  -5.2240000  -7.6870000
  15.6850000  -5.3980000  -7.1180000  15.1530000  -5.0870000  -7.7380000
  11.8520000  -0.2630000   5.4180000  11.1730000   0.3760000   5.6380000
  11.4430000  -1.1120000   5.5810000  11.7120000  -0.2900000   5.4670000
  10.0000000  -7.3540000   4.0000000  10.8610000  -7.3930000   4.4140000
  10.1860000  -7.2040000   3.0730000  10.1340000  -7.3400000   3.9340000
   9.4590000  -2.1830000   7.9870000   8.8590000  -1.4500000   8.1280000
  10.0060000  -2.2000000   8.7730000   9.4520000  -2.0910000   8.1060000
  10.8150000  -3.2820000  -3.9700000  11.2150000  -2.6970000  -3.3260000
  10.3510000  -2.6970000  -4.5690000  10.8070000  -3.1320000  -3.9640000
  12.7750000  -8.6040000  -7.9250000  12.7760000  -7.8620000  -7.3210000
  13.2790000  -8.3000000  -8.6790000  12.8400000  -8.4700000  -7.9440000
  13.6910000   3.4330000  -7.6410000  13.7770000   3.3820000  -8.5930000
  13.1380000   4.2010000  -7.4920000  13.6310000   3.5250000  -7.7440000
  11.2040000  -1.3460000   1.2180000  10.4260000  -0.8400000   1.4490000
  10.9430000  -2.2590000   1.3410000  11.0720000  -1.3980000   1.2630000
  14.3010000   2.8110000  -1.6760000  14.2140000   3.5910000  -1.1270000
  14.3730000   2.0870000  -1.0530000  14.2990000   2.8180000  -1.5260000
   9.9320000  -6.1060000  -6.4710000   9.8750000  -6.3590000  -7.3920000
   9.3840000  -5.3230000  -6.4030000   9.8550000  -6.0370000  -6.5800000
  14.4030000  -2.0480000   5.5080000  14.3120000  -2.1680000   4.5630000
  13.6790000  -1.4700000   5.7460000  14.2990000  -1.9890000   5.4170000
  15.4850000  -8.5330000  -3.0400000  15.0790000  -8.8640000  -2.2380000
  15.5910000  -9.3070000  -3.5920000  15.4470000  -8.6740000  -3.0080000
  16.0280000  -2.4860000  -5.1540000  16.4010000  -2.5510000  -6.0330000
  15.1230000  -2.7820000  -5.2550000  15.9600000  -2.5330000  -5.2790000
  15.7260000   4.6710000  -6.7200000  14.9940000   4.1820000  -7.0960000
  16.3870000   4.6840000  -7.4120000  15.7160000   4.6100000  -6.8560000
  18.1730000  -5.5890000  -2.7690000  17.3200000  -5.7270000  -3.1810000
  18.2230000  -4.6420000  -2.6330000  18.0700000  -5.4860000  -2.8040000
  10.6730000   8.0160000   3.8510000  10.3800000   7.7430000   2.9810000
  10.3650000   8.9180000   3.9350000  10.5960000   8.0960000   3.7500000
  13.0440000  -4.9210000   6.4220000  13.8360000  -4.8880000   5.8850000
  12.6850000  -4.0350000   6.3740000  13.1000000  -4.8040000   6.3470000
  19.2180000  -1.9180000  -9.5300000  19.1990000  -1.2680000  -8.8280000
  19.5730000  -2.7070000  -9.1180000  19.2610000  -1.9350000  -9.3880000
  14.5880000   5.3800000   3.2490000  14.0180000   6.0670000   3.5960000
  14.1360000   4.5640000   3.4630000  14.4570000   5.3640000   3.3210000
  18.8910000  -7.4150000  -4.6780000  18.6660000  -6.6310000  -4.1790000
  19.7900000  -7.2630000  -4.9700000  18.9770000  -7.2950000  -4.6510000
  18.1460000  -5.2810000   0.6070000  17.2950000  -5.7120000   0.5200000
  18.2450000  -5.1330000   1.5480000  18.0490000  -5.3160000   0.7160000
  16.7770000  -8.2600000   7.7580000  16.2240000  -7.9480000   8.4740000
  16.8380000  -7.5130000   7.1610000  16.7140000  -8.1240000   7.7730000
  15.5680000   4.2540000  -3.5570000  14.9320000   3.7990000  -3.0060000
  15.0790000   4.9880000  -3.9300000  15.4250000   4.2900000  -3.5340000
  17.8580000   5.8950000   7.4300000  17.4710000   5.5300000   6.6340000
  17.2100000   6.5240000   7.7450000  17.7250000   5.9280000   7.3690000
  10.2180000   5.2490000   4.7990000   9.8360000   6.0920000   5.0430000
  11.0410000   5.4750000   4.3680000  10.2740000   5.3860000   4.7750000
  12.1210000  -5.1250000   0.2210000  12.0270000  -5.5930000  -0.6090000
  12.9440000  -5.4480000   0.5860000  12.2140000  -5.2260000   0.1620000
  14.2840000  -5.8670000   1.4770000  14.7360000  -6.4460000   2.0910000
  14.8470000  -5.8520000   0.7040000  14.4140000  -5.9390000   1.4570000
  10.8660000  -2.7680000   5.7460000  10.3000000  -2.4060000   5.0640000
  10.3700000  -2.6510000   6.5560000  10.7300000  -2.7070000   5.7620000
  18.6820000   7.2770000  -4.1080000  18.4440000   6.4640000  -3.6640000
  17.8770000   7.5550000  -4.5450000  18.5490000   7.2090000  -4.1070000
  13.2830000   2.9910000   3.3210000  12.8220000   3.3350000   2.5560000
  13.3640000   2.0530000   3.1490000  13.2340000   2.9150000   3.2010000
  11.4790000   0.6320000  -4.4940000  12.4350000   0.6640000  -4.4670000
  11.2080000   1.5490000  -4.4560000  11.5670000   0.7530000  -4.4860000
  16.3190000  -3.9090000   8.4490000  15.5540000  -4.3060000   8.8670000
  16.0640000  -2.9980000   8.3010000  16.1880000  -3.8430000   8.4840000
  12.8380000  -6.0780000  -6.5230000  13.1460000  -6.0130000  -5.6190000
  11.9190000  -6.3370000  -6.4440000  12.7600000  -6.1030000  -6.3970000
   8.7670000   4.2350000  -8.1780000   9.3950000   3.7120000  -7.6790000
   9.2610000   4.5410000  -8.9390000   8.9110000   4.2070000  -8.2110000
  14.4390000   6.3190000  -4.9070000  13.7390000   6.7170000  -5.4240000
  14.8700000   5.7160000  -5.5130000  14.4050000   6.2930000  -5.0510000
  17.8580000   0.6460000  -2.7660000  18.3720000   0.0460000  -3.3060000
  17.5840000   1.3360000  -3.3700000  17.8880000   0.6570000  -2.9120000
  10.3440000   8.0010000  -8.7200000  10.9020000   7.2420000  -8.5480000
  10.9130000   8.7550000  -8.5640000  10.4890000   8.0000000  -8.6780000
  15.6340000  -5.9710000  -0.8550000  15.4560000  -5.3800000  -1.5870000
  16.1190000  -6.6980000  -1.2450000  15.6730000  -5.9870000  -0.9980000
  11.9190000   4.1270000   1.5270000  12.1790000   4.8200000   0.9190000
  11.0480000   4.3860000   1.8260000  11.8410000   4.2490000   1.4870000
  18.5380000  -1.3720000   6.4130000  17.7840000  -1.7020000   5.9240000
  18.3370000  -1.5700000   7.3270000  18.4160000  -1.4400000   6.4670000
  16.0600000  -6.5860000 -14.8560000  16.2880000  -6.6130000 -13.9270000
  15.4310000  -7.2980000 -14.9690000  16.0090000  -6.6810000 -14.7510000
  13.4590000   7.6010000 -14.5960000  12.5050000   7.5330000 -14.6280000
  13.6480000   7.9080000 -13.7100000  13.3610000   7.6320000 -14.4870000
  13.9760000  -8.3000000 -15.3500000  13.4160000  -7.8520000 -14.7160000
  13.8290000  -9.2310000 -15.1830000  13.8860000  -8.3620000 -15.2480000
  18.1900000  -4.8490000 -15.4970000  17.5870000  -5.4900000 -15.1220000
  18.9790000  -4.9180000 -14.9590000  18.2140000  -4.9390000 -15.3800000
  18.7270000  -8.4130000  -9.2190000  19.6200000  -8.6420000  -9.4830000
  18.2060000  -8.5340000 -10.0120000  18.7760000  -8.4570000  -9.3540000
  18.5030000   1.2120000 -13.4570000  18.3750000   0.3470000 -13.0680000
  18.9450000   1.0370000 -14.2880000  18.5430000   1.0790000 -13.5140000
   9.6270000  -4.4580000 -14.9000000   9.9040000  -3.8890000 -14.1820000
   9.0250000  -5.0810000 -14.4930000   9.5860000  -4.4650000 -14.7560000
  10.5000000   1.8790000 -12.3070000   9.5790000   1.6590000 -12.4470000
  10.5800000   1.9860000 -11.3600000  10.3920000   1.8640000 -12.2040000
  12.3200000  -7.4570000 -13.3120000  12.5280000  -6.5580000 -13.0550000
  11.9650000  -7.8580000 -12.5190000  12.3020000  -7.3930000 -13.1780000
  15.4030000   7.1990000 -18.1640000  15.1420000   6.8240000 -17.3230000
  16.1340000   6.6540000 -18.4530000  15.4630000   7.0810000 -18.0940000
  10.1900000  -4.4540000  -9.2590000   9.9920000  -4.3730000 -10.1910000
   9.3960000  -4.1510000  -8.8180000  10.0630000  -4.4060000  -9.3220000
  16.2640000  -1.8910000 -17.8360000  17.1450000  -1.5990000 -17.6040000
  16.3500000  -2.2250000 -18.7290000  16.3880000  -1.8960000 -17.9210000
  10.1580000   4.5720000 -10.5020000   9.3960000   5.1400000 -10.6190000
  10.3630000   4.2620000 -11.3840000  10.0860000   4.6050000 -10.6300000
  12.2290000   5.8670000  -9.1650000  12.7120000   6.4280000  -9.7720000
  11.7860000   5.2310000  -9.7260000  12.2340000   5.8580000  -9.3140000
  15.8540000   7.6030000 -10.3670000  16.4290000   7.5160000  -9.6060000
  15.8130000   8.5450000 -10.5290000  15.9230000   7.7120000 -10.2910000
  16.2100000   1.4570000 -10.4660000  16.0520000   0.5130000 -10.5020000
  16.1200000   1.7490000 -11.3730000  16.1770000   1.3730000 -10.5870000
  13.2360000   7.3540000 -11.4520000  12.9840000   8.2580000 -11.2610000
  14.1410000   7.2890000 -11.1490000  13.3200000   7.4620000 -11.3890000
  10.4380000  -7.6570000 -17.8970000  11.2720000  -7.2030000 -18.0210000
   9.8500000  -7.2580000 -18.5370000  10.4690000  -7.5480000 -17.9940000
  11.5370000  -8.5250000 -10.8850000  10.7040000  -8.9510000 -10.6840000
  11.5040000  -7.6980000 -10.4050000  11.4260000  -8.4740000 -10.7980000
  17.3000000   5.4260000 -18.9380000  16.8200000   4.6180000 -18.7610000
  18.0300000   5.4120000 -18.3190000  17.3320000   5.3210000 -18.8360000
  16.8430000  -2.0730000 -14.5510000  15.9980000  -2.3930000 -14.2340000
  17.3160000  -2.8640000 -14.8100000  16.7950000  -2.2150000 -14.5430000
  13.7690000   3.1130000 -10.2170000  14.5810000   2.6250000 -10.3590000
  13.5010000   3.3900000 -11.0930000  13.8390000   3.0860000 -10.3480000
  16.0320000   2.1530000 -13.1890000  16.9120000   1.7800000 -13.2410000
  15.4940000   1.5720000 -13.7260000  16.0760000   2.0310000 -13.2640000
  13.3150000  -0.0120000 -15.9140000  12.9380000  -0.1390000 -15.0440000
  12.7520000  -0.5230000 -16.4960000  13.1950000  -0.0930000 -15.8770000
  13.4630000  -5.5390000  -9.8240000  13.3100000  -5.2590000 -10.7260000
  13.2260000  -4.7790000  -9.2930000  13.4130000  -5.4070000  -9.8710000
  15.3960000  -1.4180000 -10.7180000  15.2810000  -1.7020000 -11.6250000
  14.5050000  -1.3150000 -10.3850000  15.2670000  -1.4410000 -10.7920000
  14.4410000  -3.0920000 -15.8720000  13.8510000  -3.8300000 -16.0240000
  15.0530000  -3.1190000 -16.6070000  14.4440000  -3.1890000 -15.9860000
  15.8260000   3.1010000 -17.8400000  15.7860000   2.1460000 -17.8770000
  15.3700000   3.3290000 -17.0300000  15.7630000   3.0080000 -17.7410000
  19.6690000   5.7120000 -17.4300000  19.6050000   5.1920000 -16.6280000
  20.2140000   6.4610000 -17.1870000  19.7300000   5.7410000 -17.2960000
  11.4810000   8.8000000 -19.6510000  10.9390000   9.2230000 -18.9840000
  12.3800000   8.9960000 -19.3890000  11.5260000   8.8800000 -19.5320000
  13.0220000   2.8650000 -12.7310000  12.9840000   3.1820000 -13.6330000
  12.1500000   2.5060000 -12.5660000  12.9050000   2.8590000 -12.8250000
  16.9300000   4.6050000 -14.1560000  16.1470000   5.0110000 -14.5250000
  16.6420000   3.7340000 -13.8830000  16.7930000   4.5450000 -14.1680000
  10.6680000   6.6170000 -17.4130000  11.3230000   6.9780000 -18.0100000
   9.9900000   6.2620000 -17.9880000  10.6650000   6.6180000 -17.5630000
  15.9560000   0.5620000 -15.6770000  16.2810000  -0.2410000 -15.2700000
  15.0870000   0.3300000 -16.0030000  15.8860000   0.4300000 -15.6670000
  11.5720000   1.4960000  -9.7080000  12.3750000   2.0060000  -9.8180000
  11.1220000   1.9140000  -8.9740000  11.6170000   1.6150000  -9.6280000
   9.9950000  -3.8170000 -17.5530000  10.7930000  -4.1670000 -17.9480000
   9.9750000  -4.1970000 -16.6750000  10.0940000  -3.9120000 -17.4910000
  12.0790000   0.9700000 -18.8400000  13.0370000   0.9540000 -18.8590000
  11.8350000   0.1560000 -18.4000000  12.1710000   0.8640000 -18.7860000
  19.4570000   4.3330000 -14.9920000  19.8500000   5.1540000 -14.6960000
  18.5440000   4.3880000 -14.7100000  19.3910000   4.4450000 -14.9180000
  17.0830000  -5.7310000 -12.3780000  18.0050000  -5.6540000 -12.1340000
  16.6310000  -5.1130000 -11.8030000  17.1430000  -5.6420000 -12.2740000
  14.0740000  -8.7210000 -19.4590000  14.2440000  -7.7990000 -19.2600000
  14.6400000  -9.2040000 -18.8580000  14.1680000  -8.6650000 -19.3570000
  18.9310000  -2.2350000 -17.2910000  18.4820000  -2.9890000 -16.9090000
  19.6530000  -2.6150000 -17.7910000  18.9650000  -2.3800000 -17.3060000
  19.6050000  -5.1540000 -10.8890000  19.1390000  -4.5560000 -10.3050000
  20.2000000  -4.5900000 -11.3840000  19.6200000  -5.0060000 -10.8780000
  11.8520000  -0.2630000 -13.4420000  11.1730000   0.3760000 -13.2220000
  11.4430000  -1.1120000 -13.2790000  11.7120000  -0.2900000 -13.3930000
  10.0000000  -7.3540000 -14.8600000  10.8610000  -7.3930000 -14.4460000
  10.1860000  -7.2040000 -15.7870000  10.1340000  -7.3400000 -14.9260000
   9.4590000  -2.1830000 -10.8730000   8.8590000  -1.4500000 -10.7320000
  10.0060000  -2.2000000 -10.0870000   9.4520000  -2.0910000 -10.7540000
  11.2040000  -1.3460000 -17.6420000  10.4260000  -0.8400000 -17.4110000
  10.9430000  -2.2590000 -17.5190000  11.0720000  -1.3980000 -17.5970000
  14.4030000  -2.0480000 -13.3520000  14.3120000  -2.1680000 -14.2970000
  13.6790000  -1.4700000 -13.1140000  14.2990000  -1.9890000 -13.4430000
  10.6730000   8.0160000 -15.0090000  10.3800000   7.7430000 -15.8790000
  10.3650000   8.9180000 -14.9250000  10.5960000   8.0960000 -15.1100000
  13.0440000  -4.9210000 -12.4380000  13.8360000  -4.8880000 -12.9750000
  12.6850000  -4.0350000 -12.4860000  13.1000000  -4.8040000 -12.5130000
  14.5880000   5.3800000 -15.6110000  14.0180000   6.0670000 -15.2640000
  14.1360000   4.5640000 -15.3970000  14.4570000   5.3640000 -15.5390000
  18.1460000  -5.2810000 -18.2530000  17.2950000  -5.7120000 -18.3400000
  18.2450000  -5.1330000 -17.3120000  18.0490000  -5.3160000 -18.1440000
  16.7770000  -8.2600000 -11.1020000  16.2240000  -7.9480000 -10.3860000
  16.8380000  -7.5130000 -11.6990000  16.7140000  -8.1240000 -11.0870000
  17.8580000   5.8950000 -11.4300000  17.4710000   5.5300000 -12.2260000
  17.2100000   6.5240000 -11.1150000  17.7250000   5.9280000 -11.4910000
  10.2180000   5.2490000 -14.0610000   9.8360000   6.0920000 -13.8170000
  11.0410000   5.4750000 -14.4920000  10.2740000   5.3860000 -14.0850000
  12.1210000  -5.1250000 -18.6390000  12.0270000  -5.5930000 -19.4690000
  12.9440000  -5.4480000 -18.2740000  12.2140000  -5.2260000 -18.6980000
  14.2840000  -5.8670000 -17.3830000  14.7360000  -6.4460000 -16.7690000
  14.8470000  -5.8520000 -18.1560000  14.4140000  -5.9390000 -17.4030000
  10.8660000  -2.7680000 -13.1140000  10.3000000  -2.4060000 -13.7960000
  10.3700000  -2.6510000 -12.3040000  10.7300000  -2.7070000 -13.0980000
  13.2830000   2.9910000 -15.5390000  12.8220000   3.3350000 -16.3040000
  13.3640000   2.0530000 -15.7110000  13.2340000   2.9150000 -15.6590000
  16.3190000  -3.9090000 -10.4110000  15.5540000  -4.3060000  -9.9930000
  16.0640000  -2.9980000 -10.5590000  16.1880000  -3.8430000 -10.3760000
  11.9190000   4.1270000 -17.3330000  12.1790000   4.8200000 -17.9410000
  11.0480000   4.3860000 -17.0340000  11.8410000   4.2490000 -17.3730000
  18.5380000  -1.3720000 -12.4470000  17.7840000  -1.7020000 -12.9360000
  18.3370000  -1.5700000 -11.5330000  18.4160000  -1.4400000 -12.3930000
  18.2240000 -13.8230000  16.2870000  18.0500000 -13.6620000  17.2150000
  17.4590000 -14.3090000  15.9810000  18.1040000 -13.8640000  16.3670000
  14.7940000 -18.9260000  11.6180000  14.6410000 -18.4690000  12.4450000
  15.5070000 -19.5360000  11.8100000  14.8660000 -18.9450000  11.7480000
  11.6820000 -12.6700000  16.5810000  11.7190000 -11.7770000  16.2370000
  10.8830000 -12.6910000  17.1070000  11.5850000 -12.5580000  16.6040000
  16.3930000 -10.8800000  13.2700000  15.5940000 -11.4070000  13.2800000
  16.7370000 -10.9830000  12.3830000  16.3350000 -10.9610000  13.1580000
  20.3010000 -15.8940000  15.7370000  19.8750000 -16.5020000  15.1330000
  19.6380000 -15.2280000  15.9150000  20.1620000 -15.8870000  15.6830000
  18.2890000 -21.3340000  14.9390000  17.4640000 -21.3520000  14.4540000
  18.0380000 -21.5200000  15.8440000  18.1510000 -21.3600000  14.9930000
  13.6410000 -13.4760000  18.2710000  12.9160000 -13.1730000  17.7230000
  14.2350000 -12.7260000  18.3190000  13.6250000 -13.3410000  18.2070000
  13.1140000 -19.7120000   9.6090000  12.5110000 -18.9750000   9.5130000
  13.7430000 -19.4220000  10.2700000  13.1160000 -19.5810000   9.6810000
  17.5410000 -11.2500000  10.9020000  18.0000000 -12.0720000  11.0740000
  18.2390000 -10.6100000  10.7630000  17.6890000 -11.2730000  10.9060000
  10.9470000  -9.7080000  14.0920000  10.1660000  -9.8390000  13.5540000
  10.9160000  -8.7830000  14.3360000  10.8430000  -9.6060000  14.0540000
  17.3000000 -13.4420000  18.7820000  16.8200000 -14.2500000  18.9590000
  18.0300000 -13.4560000  19.4010000  17.3320000 -13.5470000  18.8840000
  12.6780000 -11.1830000  12.6260000  12.0960000 -10.6850000  13.1990000
  12.9070000 -10.5720000  11.9260000  12.6330000 -11.0410000  12.6100000
  10.3050000 -15.8040000  18.0820000  10.6990000 -15.8740000  17.2120000
  10.9160000 -16.2590000  18.6590000  10.4340000 -15.8700000  18.0440000
  19.7760000 -19.2600000  13.9330000  19.1040000 -19.9410000  13.9630000
  19.8550000 -19.0430000  13.0040000  19.7000000 -19.3190000  13.8180000
   9.4090000 -20.0120000  13.6990000  10.0740000 -19.4120000  14.0370000
   8.5770000 -19.5780000  13.8880000   9.3880000 -19.8800000  13.7670000
  11.7420000 -15.5670000  15.9010000  12.4210000 -15.8460000  16.5150000
  11.8400000 -14.6170000  15.8520000  11.8410000 -15.4810000  15.9740000
  14.7900000 -17.9430000  13.9930000  15.6130000 -17.4570000  13.9550000
  14.8410000 -18.4380000  14.8100000  14.9020000 -17.9440000  14.0920000
  11.4810000 -10.0680000  18.0690000  10.9390000  -9.6450000  18.7360000
  12.3800000  -9.8710000  18.3310000  11.5260000  -9.9880000  18.1880000
  17.0850000 -16.3060000  13.9950000  16.5620000 -15.6030000  14.3810000
  17.0960000 -16.1100000  13.0590000  17.0200000 -16.1910000  13.9250000
  16.6920000 -21.4780000  11.0130000  16.2120000 -22.2950000  10.8820000
  17.1270000 -21.3190000  10.1750000  16.6870000 -21.5620000  10.8890000
  10.6570000 -16.4410000  11.4710000  11.4240000 -16.7640000  11.9460000
   9.9150000 -16.6800000  12.0260000  10.6600000 -16.5130000  11.6030000
  19.3890000 -19.6280000  17.8950000  18.9820000 -18.8680000  17.4790000
  20.2510000 -19.6930000  17.4850000  19.4470000 -19.5390000  17.7890000
  12.0790000 -17.8980000  18.8800000  13.0370000 -17.9140000  18.8610000
  11.8350000 -18.7120000  19.3200000  12.1710000 -18.0040000  18.9340000
  15.4270000 -19.4580000  16.1020000  15.6140000 -20.2100000  15.5400000
  16.2830000 -19.0670000  16.2720000  15.5600000 -19.5040000  16.0520000
  17.8770000 -14.2510000  10.3850000  18.7210000 -14.2890000  10.8360000
  18.1000000 -14.0460000   9.4770000  18.0140000 -14.2300000  10.3270000
  14.9280000 -18.4610000  18.6540000  15.1850000 -18.8790000  17.8320000
  15.0120000 -19.1530000  19.3100000  14.9720000 -18.6020000  18.6330000
  19.6300000  -9.5920000  16.4520000  19.4450000 -10.4190000  16.0060000
  19.3170000  -8.9190000  15.8470000  19.5660000  -9.6120000  16.3170000
  17.4200000  -9.2120000  18.6250000  17.3860000  -9.8990000  19.2900000
  17.8960000  -9.6070000  17.8950000  17.4760000  -9.3500000  18.6170000
  19.2990000 -18.4840000  11.3130000  20.0290000 -17.8640000  11.3020000
  18.5170000 -17.9330000  11.2820000  19.2920000 -18.3340000  11.3070000
  10.8150000 -22.1500000  14.8900000  11.2150000 -21.5650000  15.5340000
  10.3510000 -21.5650000  14.2910000  10.8070000 -22.0000000  14.8960000
  13.6910000 -15.4350000  11.2190000  13.7770000 -15.4860000  10.2670000
  13.1380000 -14.6670000  11.3680000  13.6310000 -15.3430000  11.1160000
  14.3010000 -16.0570000  17.1840000  14.2140000 -15.2770000  17.7330000
  14.3730000 -16.7810000  17.8070000  14.2990000 -16.0500000  17.3340000
  16.0280000 -21.3540000  13.7060000  16.4010000 -21.4190000  12.8270000
  15.1230000 -21.6500000  13.6050000  15.9600000 -21.4010000  13.5810000
  15.7260000 -14.1970000  12.1400000  14.9940000 -14.6860000  11.7640000
  16.3870000 -14.1840000  11.4480000  15.7160000 -14.2580000  12.0040000
  19.2180000 -20.7850000   9.3300000  19.1990000 -20.1360000  10.0320000
  19.5730000 -21.5740000   9.7420000  19.2610000 -20.8030000   9.4720000
  15.5680000 -14.6140000  15.3030000  14.9320000 -15.0690000  15.8540000
  15.0790000 -13.8800000  14.9300000  15.4250000 -14.5780000  15.3260000
  18.6820000 -11.5910000  14.7520000  18.4440000 -12.4040000  15.1960000
  17.8770000 -11.3130000  14.3150000  18.5490000 -11.6590000  14.7530000
  11.4790000 -18.2360000  14.3660000  12.4350000 -18.2040000  14.3930000
  11.2080000 -17.3190000  14.4040000  11.5670000 -18.1150000  14.3740000
   8.7670000 -14.6330000  10.6820000   9.3950000 -15.1560000  11.1810000
   9.2610000 -14.3270000   9.9210000   8.9110000 -14.6610000  10.6490000
  14.4390000 -12.5490000  13.9530000  13.7390000 -12.1510000  13.4360000
  14.8700000 -13.1520000  13.3470000  14.4050000 -12.5750000  13.8090000
  17.8580000 -18.2220000  16.0940000  18.3720000 -18.8220000  15.5540000
  17.5840000 -17.5320000  15.4900000  17.8880000 -18.2110000  15.9480000
  10.3440000 -10.8670000  10.1400000  10.9020000 -11.6260000  10.3120000
  10.9130000 -10.1130000  10.2960000  10.4890000 -10.8680000  10.1820000
  13.4590000 -11.2670000   4.2640000  12.5050000 -11.3350000   4.2320000
  13.6480000 -10.9600000   5.1500000  13.3610000 -11.2360000   4.3730000
  18.2240000 -13.8230000  -2.5730000  18.0500000 -13.6620000  -1.6450000
  17.4590000 -14.3090000  -2.8790000  18.1040000 -13.8640000  -2.4930000
  11.6820000 -12.6700000  -2.2790000  11.7190000 -11.7770000  -2.6230000
  10.8830000 -12.6910000  -1.7530000  11.5850000 -12.5580000  -2.2560000
  16.3930000 -10.8800000  -5.5900000  15.5940000 -11.4070000  -5.5800000
  16.7370000 -10.9830000  -6.4770000  16.3350000 -10.9610000  -5.7020000
  20.3010000 -15.8940000  -3.1230000  19.8750000 -16.5020000  -3.7270000
  19.6380000 -15.2280000  -2.9450000  20.1620000 -15.8870000  -3.1770000
  18.5030000 -17.6560000   5.4030000  18.3750000 -18.5210000   5.7920000
  18.9450000 -17.8310000   4.5720000  18.5430000 -17.7890000   5.3460000
  10.5000000 -16.9890000   6.5530000   9.5790000 -17.2090000   6.4130000
  10.5800000 -16.8820000   7.5000000  10.3920000 -17.0040000   6.6560000
  18.2890000 -21.3340000  -3.9210000  17.4640000 -21.3520000  -4.4060000
  18.0380000 -21.5200000  -3.0160000  18.1510000 -21.3600000  -3.8670000
  15.4030000 -11.6690000   0.6960000  15.1420000 -12.0440000   1.5370000
  16.1340000 -12.2140000   0.4070000  15.4630000 -11.7870000   0.7660000
  13.6410000 -13.4760000  -0.5890000  12.9160000 -13.1730000  -1.1370000
  14.2350000 -12.7260000  -0.5410000  13.6250000 -13.3410000  -0.6530000
  13.1140000 -19.7120000  -9.2510000  12.5110000 -18.9750000  -9.3470000
  13.7430000 -19.4220000  -8.5900000  13.1160000 -19.5810000  -9.1790000
  17.5410000 -11.2500000  -7.9580000  18.0000000 -12.0720000  -7.7860000
  18.2390000 -10.6100000  -8.0970000  17.6890000 -11.2730000  -7.9540000
  16.2640000 -20.7590000   1.0240000  17.1450000 -20.4670000   1.2560000
  16.3500000 -21.0930000   0.1310000  16.3880000 -20.7640000   0.9390000
  10.1580000 -14.2960000   8.3580000   9.3960000 -13.7280000   8.2410000
  10.3630000 -14.6060000   7.4760000  10.0860000 -14.2630000   8.2300000
  12.2290000 -13.0010000   9.6950000  12.7120000 -12.4400000   9.0880000
  11.7860000 -13.6370000   9.1340000  12.2340000 -13.0100000   9.5460000
  15.8540000 -11.2650000   8.4930000  16.4290000 -11.3520000   9.2540000
  15.8130000 -10.3230000   8.3310000  15.9230000 -11.1560000   8.5690000
  16.2100000 -17.4110000   8.3940000  16.0520000 -18.3550000   8.3580000
  16.1200000 -17.1190000   7.4870000  16.1770000 -17.4950000   8.2730000
  13.2360000 -11.5140000   7.4080000  12.9840000 -10.6100000   7.5990000
  14.1410000 -11.5790000   7.7110000  13.3200000 -11.4060000   7.4710000
  10.9470000  -9.7080000  -4.7680000  10.1660000  -9.8390000  -5.3060000
  10.9160000  -8.7830000  -4.5240000  10.8430000  -9.6060000  -4.8060000
  17.3000000 -13.4420000  -0.0780000  16.8200000 -14.2500000   0.0990000
  18.0300000 -13.4560000   0.5410000  17.3320000 -13.5470000   0.0240000
  16.8430000 -20.9410000   4.3090000  15.9980000 -21.2610000   4.6260000
  17.3160000 -21.7320000   4.0500000  16.7950000 -21.0830000   4.3170000
  13.7690000 -15.7550000   8.6430000  14.5810000 -16.2430000   8.5010000
  13.5010000 -15.4780000   7.7670000  13.8390000 -15.7820000   8.5120000
  12.6780000 -11.1830000  -6.2340000  12.0960000 -10.6850000  -5.6610000
  12.9070000 -10.5720000  -6.9340000  12.6330000 -11.0410000  -6.2500000
  16.0320000 -16.7150000   5.6710000  16.9120000 -17.0880000   5.6190000
  15.4940000 -17.2960000   5.1340000  16.0760000 -16.8370000   5.5960000
  13.3150000 -18.8800000   2.9460000  12.9380000 -19.0070000   3.8160000
  12.7520000 -19.3910000   2.3640000  13.1950000 -18.9610000   2.9830000
  10.3050000 -15.8040000  -0.7780000  10.6990000 -15.8740000  -1.6480000
  10.9160000 -16.2590000  -0.2010000  10.4340000 -15.8700000  -0.8160000
  19.7760000 -19.2600000  -4.9270000  19.1040000 -19.9410000  -4.8970000
  19.8550000 -19.0430000  -5.8560000  19.7000000 -19.3190000  -5.0420000
  15.3960000 -20.2860000   8.1420000  15.2810000 -20.5700000   7.2350000
  14.5050000 -20.1830000   8.4750000  15.2670000 -20.3090000   8.0680000
  15.8260000 -15.7670000   1.0200000  15.7860000 -16.7220000   0.9830000
  15.3700000 -15.5390000   1.8300000  15.7630000 -15.8600000   1.1190000
   9.4090000 -20.0120000  -5.1610000  10.0740000 -19.4120000  -4.8230000
   8.5770000 -19.5780000  -4.9720000   9.3880000 -19.8800000  -5.0930000
  11.7420000 -15.5670000  -2.9590000  12.4210000 -15.8460000  -2.3450000
  11.8400000 -14.6170000  -3.0080000  11.8410000 -15.4810000  -2.8860000
  17.1560000 -16.8310000  -7.8720000  16.7730000 -17.1400000  -8.6930000
  17.3950000 -15.9190000  -8.0470000  17.1380000 -16.7540000  -7.9990000
  19.6690000 -13.1560000   1.4300000  19.6050000 -13.6760000   2.2320000
  20.2140000 -12.4070000   1.6730000  19.7300000 -13.1260000   1.5640000
  14.7900000 -17.9430000  -4.8670000  15.6130000 -17.4570000  -4.9050000
  14.8410000 -18.4380000  -4.0500000  14.9020000 -17.9440000  -4.7680000
  11.4810000 -10.0680000  -0.7910000  10.9390000  -9.6450000  -0.1240000
  12.3800000  -9.8710000  -0.5290000  11.5260000  -9.9880000  -0.6720000
  17.0850000 -16.3060000  -4.8650000  16.5620000 -15.6030000  -4.4790000
  17.0960000 -16.1100000  -5.8010000  17.0200000 -16.1910000  -4.9350000
  13.0220000 -16.0030000   6.1290000  12.9840000 -15.6860000   5.2270000
  12.1500000 -16.3620000   6.2940000  12.9050000 -16.0090000   6.0350000
  16.9300000 -14.2630000   4.7040000  16.1470000 -13.8570000   4.3350000
  16.6420000 -15.1340000   4.9770000  16.7930000 -14.3230000   4.6920000
  10.6680000 -12.2510000   1.4470000  11.3230000 -11.8900000   0.8500000
   9.9900000 -12.6060000   0.8720000  10.6650000 -12.2500000   1.2970000
  15.9560000 -18.3060000   3.1830000  16.2810000 -19.1090000   3.5900000
  15.0870000 -18.5380000   2.8570000  15.8860000 -18.4380000   3.1930000
  11.5720000 -17.3720000   9.1520000  12.3750000 -16.8620000   9.0420000
  11.1220000 -16.9540000   9.8860000  11.6170000 -17.2530000   9.2320000
  16.6920000 -21.4780000  -7.8470000  16.2120000 -22.2950000  -7.9780000
  17.1270000 -21.3190000  -8.6850000  16.6870000 -21.5620000  -7.9710000
  10.6570000 -16.4410000  -7.3890000  11.4240000 -16.7640000  -6.9140000
   9.9150000 -16.6800000  -6.8340000  10.6600000 -16.5130000  -7.2570000
  19.3890000 -19.6280000  -0.9650000  18.9820000 -18.8680000  -1.3810000
  20.2510000 -19.6930000  -1.3750000  19.4470000 -19.5390000  -1.0710000
  12.0790000 -17.8980000   0.0200000  13.0370000 -17.9140000   0.0010000
  11.8350000 -18.7120000   0.4600000  12.1710000 -18.0040000   0.0740000
  19.4570000 -14.5350000   3.8680000  19.8500000 -13.7140000   4.1640000
  18.5440000 -14.4800000   4.1500000  19.3910000 -14.4230000   3.9420000
  15.4270000 -19.4580000  -2.7580000  15.6140000 -20.2100000  -3.3200000
  16.2830000 -19.0670000  -2.5880000  15.5600000 -19.5040000  -2.8080000
  17.8770000 -14.2510000  -8.4750000  18.7210000 -14.2890000  -8.0240000
  18.1000000 -14.0460000  -9.3830000  18.0140000 -14.2300000  -8.5330000
  14.9280000 -18.4610000  -0.2060000  15.1850000 -18.8790000  -1.0280000
  15.0120000 -19.1530000   0.4500000  14.9720000 -18.6020000  -0.2270000
  19.6300000  -9.5920000  -2.4080000  19.4450000 -10.4190000  -2.8540000
  19.3170000  -8.9190000  -3.0130000  19.5660000  -9.6120000  -2.5430000
  17.4200000  -9.2120000  -0.2350000  17.3860000  -9.8990000   0.4300000
  17.8960000  -9.6070000  -0.9650000  17.4760000  -9.3500000  -0.2430000
  19.2990000 -18.4840000  -7.5470000  20.0290000 -17.8640000  -7.5580000
  18.5170000 -17.9330000  -7.5780000  19.2920000 -18.3340000  -7.5530000
  18.9310000 -21.1030000   1.5690000  18.4820000 -21.8570000   1.9510000
  19.6530000 -21.4830000   1.0690000  18.9650000 -21.2480000   1.5540000
  11.8520000 -19.1310000   5.4180000  11.1730000 -18.4920000   5.6380000
  11.4430000 -19.9800000   5.5810000  11.7120000 -19.1580000   5.4670000
   9.4590000 -21.0510000   7.9870000   8.8590000 -20.3180000   8.1280000
  10.0060000 -21.0680000   8.7730000   9.4520000 -20.9590000   8.1060000
  10.8150000 -22.1500000  -3.9700000  11.2150000 -21.5650000  -3.3260000
  10.3510000 -21.5650000  -4.5690000  10.8070000 -22.0000000  -3.9640000
  13.6910000 -15.4350000  -7.6410000  13.7770000 -15.4860000  -8.5930000
  13.1380000 -14.6670000  -7.4920000  13.6310000 -15.3430000  -7.7440000
  11.2040000 -20.2140000   1.2180000  10.4260000 -19.7080000   1.4490000
  10.9430000 -21.1260000   1.3410000  11.0720000 -20.2660000   1.2630000
  14.3010000 -16.0570000  -1.6760000  14.2140000 -15.2770000  -1.1270000
  14.3730000 -16.7810000  -1.0530000  14.2990000 -16.0500000  -1.5260000
  14.4030000 -20.9160000   5.5080000  14.3120000 -21.0350000   4.5630000
  13.6790000 -20.3380000   5.7460000  14.2990000 -20.8570000   5.4170000
  16.0280000 -21.3540000  -5.1540000  16.4010000 -21.4190000  -6.0330000
  15.1230000 -21.6500000  -5.2550000  15.9600000 -21.4010000  -5.2790000
  15.7260000 -14.1970000  -6.7200000  14.9940000 -14.6860000  -7.0960000
  16.3870000 -14.1840000  -7.4120000  15.7160000 -14.2580000  -6.8560000
  10.6730000 -10.8520000   3.8510000  10.3800000 -11.1250000   2.9810000
  10.3650000  -9.9500000   3.9350000  10.5960000 -10.7720000   3.7500000
  19.2180000 -20.7850000  -9.5300000  19.1990000 -20.1360000  -8.8280000
  19.5730000 -21.5740000  -9.1180000  19.2610000 -20.8030000  -9.3880000
  14.5880000 -13.4880000   3.2490000  14.0180000 -12.8010000   3.5960000
  14.1360000 -14.3040000   3.4630000  14.4570000 -13.5040000   3.3210000
  15.5680000 -14.6140000  -3.5570000  14.9320000 -15.0690000  -3.0060000
  15.0790000 -13.8800000  -3.9300000  15.4250000 -14.5780000  -3.5340000
  17.8580000 -12.9730000   7.4300000  17.4710000 -13.3380000   6.6340000
  17.2100000 -12.3440000   7.7450000  17.7250000 -12.9400000   7.3690000
  10.2180000 -13.6190000   4.7990000   9.8360000 -12.7760000   5.0430000
  11.0410000 -13.3930000   4.3680000  10.2740000 -13.4820000   4.7750000
  10.8660000 -21.6350000   5.7460000  10.3000000 -21.2740000   5.0640000
  10.3700000 -21.5190000   6.5560000  10.7300000 -21.5740000   5.7620000
  18.6820000 -11.5910000  -4.1080000  18.4440000 -12.4040000  -3.6640000
  17.8770000 -11.3130000  -4.5450000  18.5490000 -11.6590000  -4.1070000
  13.2830000 -15.8760000   3.3210000  12.8220000 -15.5330000   2.5560000
  13.3640000 -16.8150000   3.1490000  13.2340000 -15.9530000   3.2010000
  11.4790000 -18.2360000  -4.4940000  12.4350000 -18.2040000  -4.4670000
  11.2080000 -17.3190000  -4.4560000  11.5670000 -18.1150000  -4.4860000
   8.7670000 -14.6330000  -8.1780000   9.3950000 -15.1560000  -7.6790000
   9.2610000 -14.3270000  -8.9390000   8.9110000 -14.6610000  -8.2110000
  14.4390000 -12.5490000  -4.9070000  13.7390000 -12.1510000  -5.4240000
  14.8700000 -13.1520000  -5.5130000  14.4050000 -12.5750000  -5.0510000
  17.8580000 -18.2220000  -2.7660000  18.3720000 -18.8220000  -3.3060000
  17.5840000 -17.5320000  -3.3700000  17.8880000 -18.2110000  -2.9120000
  10.3440000 -10.8670000  -8.7200000  10.9020000 -11.6260000  -8.5480000
  10.9130000 -10.1130000  -8.5640000  10.4890000 -10.8680000  -8.6780000
   9.2390000 -18.2480000  -2.2780000   9.8360000 -17.9920000  -2.9820000
   9.5420000 -17.7530000  -1.5160000   9.3540000 -18.1520000  -2.2710000
  11.9190000 -14.7410000   1.5270000  12.1790000 -14.0480000   0.9190000
  11.0480000 -14.4820000   1.8260000  11.8410000 -14.6190000   1.4870000
  18.5380000 -20.2400000   6.4130000  17.7840000 -20.5700000   5.9240000
  18.3370000 -20.4380000   7.3270000  18.4160000 -20.3080000   6.4670000
  13.4590000 -11.2670000 -14.5960000  12.5050000 -11.3350000 -14.6280000
  13.6480000 -10.9600000 -13.7100000  13.3610000 -11.2360000 -14.4870000
  18.5030000 -17.6560000 -13.4570000  18.3750000 -18.5210000 -13.0680000
  18.9450000 -17.8310000 -14.2880000  18.5430000 -17.7890000 -13.5140000
  10.5000000 -16.9890000 -12.3070000   9.5790000 -17.2090000 -12.4470000
  10.5800000 -16.8820000 -11.3600000  10.3920000 -17.0040000 -12.2040000
  15.4030000 -11.6690000 -18.1640000  15.1420000 -12.0440000 -17.3230000
  16.1340000 -12.2140000 -18.4530000  15.4630000 -11.7870000 -18.0940000
  16.2640000 -20.7590000 -17.8360000  17.1450000 -20.4670000 -17.6040000
  16.3500000 -21.0930000 -18.7290000  16.3880000 -20.7640000 -17.9210000
  10.1580000 -14.2960000 -10.5020000   9.3960000 -13.7280000 -10.6190000
  10.3630000 -14.6060000 -11.3840000  10.0860000 -14.2630000 -10.6300000
  12.2290000 -13.0010000  -9.1650000  12.7120000 -12.4400000  -9.7720000
  11.7860000 -13.6370000  -9.7260000  12.2340000 -13.0100000  -9.3140000
  15.8540000 -11.2650000 -10.3670000  16.4290000 -11.3520000  -9.6060000
  15.8130000 -10.3230000 -10.5290000  15.9230000 -11.1560000 -10.2910000
  16.2100000 -17.4110000 -10.4660000  16.0520000 -18.3550000 -10.5020000
  16.1200000 -17.1190000 -11.3730000  16.1770000 -17.4950000 -10.5870000
  13.2360000 -11.5140000 -11.4520000  12.9840000 -10.6100000 -11.2610000
  14.1410000 -11.5790000 -11.1490000  13.3200000 -11.4060000 -11.3890000
  17.3000000 -13.4420000 -18.9380000  16.8200000 -14.2500000 -18.7610000
  18.0300000 -13.4560000 -18.3190000  17.3320000 -13.5470000 -18.8360000
  16.8430000 -20.9410000 -14.5510000  15.9980000 -21.2610000 -14.2340000
  17.3160000 -21.7320000 -14.8100000  16.7950000 -21.0830000 -14.5430000
  13.7690000 -15.7550000 -10.2170000  14.5810000 -16.2430000 -10.3590000
  13.5010000 -15.4780000 -11.0930000  13.8390000 -15.7820000 -10.3480000
  16.0320000 -16.7150000 -13.1890000  16.9120000 -17.0880000 -13.2410000
  15.4940000 -17.2960000 -13.7260000  16.0760000 -16.8370000 -13.2640000
  13.3150000 -18.8800000 -15.9140000  12.9380000 -19.0070000 -15.0440000
  12.7520000 -19.3910000 -16.4960000  13.1950000 -18.9610000 -15.8770000
  15.3960000 -20.2860000 -10.7180000  15.2810000 -20.5700000 -11.6250000
  14.5050000 -20.1830000 -10.3850000  15.2670000 -20.3090000 -10.7920000
  15.8260000 -15.7670000 -17.8400000  15.7860000 -16.7220000 -17.8770000
  15.3700000 -15.5390000 -17.0300000  15.7630000 -15.8600000 -17.7410000
  19.6690000 -13.1560000 -17.4300000  19.6050000 -13.6760000 -16.6280000
  20.2140000 -12.4070000 -17.1870000  19.7300000 -13.1260000 -17.2960000
  11.4810000 -10.0680000 -19.6510000  10.9390000  -9.6450000 -18.9840000
  12.3800000  -9.8710000 -19.3890000  11.5260000  -9.9880000 -19.5320000
  13.0220000 -16.0030000 -12.7310000  12.9840000 -15.6860000 -13.6330000
  12.1500000 -16.3620000 -12.5660000  12.9050000 -16.0090000 -12.8250000
  16.9300000 -14.2630000 -14.1560000  16.1470000 -13.8570000 -14.5250000
  16.6420000 -15.1340000 -13.8830000  16.7930000 -14.3230000 -14.1680000
  10.6680000 -12.2510000 -17.4130000  11.3230000 -11.8900000 -18.0100000
   9.9900000 -12.6060000 -17.9880000  10.6650000 -12.2500000 -17.5630000
  15.9560000 -18.3060000 -15.6770000  16.2810000 -19.1090000 -15.2700000
  15.0870000 -18.5380000 -16.0030000  15.8860000 -18.4380000 -15.6670000
  11.5720000 -17.3720000  -9.7080000  12.3750000 -16.8620000  -9.8180000
  11.1220000 -16.9540000  -8.9740000  11.6170000 -17.2530000  -9.6280000
  12.0790000 -17.8980000 -18.8400000  13.0370000 -17.9140000 -18.8590000
  11.8350000 -18.7120000 -18.4000000  12.1710000 -18.0040000 -18.7860000
  19.4570000 -14.5350000 -14.9920000  19.8500000 -13.7140000 -14.6960000
  18.5440000 -14.4800000 -14.7100000  19.3910000 -14.4230000 -14.9180000
  18.9310000 -21.1030000 -17.2910000  18.4820000 -21.8570000 -16.9090000
  19.6530000 -21.4830000 -17.7910000  18.9650000 -21.2480000 -17.3060000
  11.8520000 -19.1310000 -13.4420000  11.1730000 -18.4920000 -13.2220000
  11.4430000 -19.9800000 -13.2790000  11.7120000 -19.1580000 -13.3930000
   9.4590000 -21.0510000 -10.8730000   8.8590000 -20.3180000 -10.7320000
  10.0060000 -21.0680000 -10.0870000   9.4520000 -20.9590000 -10.7540000
  11.2040000 -20.2140000 -17.6420000  10.4260000 -19.7080000 -17.4110000
  10.9430000 -21.1260000 -17.5190000  11.0720000 -20.2660000 -17.5970000
  14.4030000 -20.9160000 -13.3520000  14.3120000 -21.0350000 -14.2970000
  13.6790000 -20.3380000 -13.1140000  14.2990000 -20.8570000 -13.4430000
  10.6730000 -10.8520000 -15.0090000  10.3800000 -11.1250000 -15.8790000
  10.3650000  -9.9500000 -14.9250000  10.5960000 -10.7720000 -15.1100000
  14.5880000 -13.4880000 -15.6110000  14.0180000 -12.8010000 -15.2640000
  14.1360000 -14.3040000 -15.3970000  14.4570000 -13.5040000 -15.5390000
  17.8580000 -12.9730000 -11.4300000  17.4710000 -13.3380000 -12.2260000
  17.2100000 -12.3440000 -11.1150000  17.7250000 -12.9400000 -11.4910000
  10.2180000 -13.6190000 -14.0610000   9.8360000 -12.7760000 -13.8170000
  11.0410000 -13.3930000 -14.4920000  10.2740000 -13.4820000 -14.0850000
  10.8660000 -21.6350000 -13.1140000  10.3000000 -21.2740000 -13.7960000
  10.3700000 -21.5190000 -12.3040000  10.7300000 -21.5740000 -13.0980000
  13.2830000 -15.8760000 -15.5390000  12.8220000 -15.5330000 -16.3040000
  13.3640000 -16.8150000 -15.7110000  13.2340000 -15.9530000 -15.6590000
  11.9190000 -14.7410000 -17.3330000  12.1790000 -14.0480000 -17.9410000
  11.0480000 -14.4820000 -17.0340000  11.8410000 -14.6190000 -17.3730000
  18.5380000 -20.2400000 -12.4470000  17.7840000 -20.5700000 -12.9360000
  18.3370000 -20.4380000 -11.5330000  18.4160000 -20.3080000 -12.3930000
  -4.0660000  18.8090000  11.6180000  -4.2190000  19.2660000  12.4450000
  -3.3530000  18.1990000  11.8100000  -3.9940000  18.7890000  11.7480000
   1.4410000  21.8400000  15.7370000   1.0150000  21.2330000  15.1330000
   0.7780000  22.5070000  15.9150000   1.3020000  21.8480000  15.6830000
   7.1930000  12.4720000  14.9900000   7.2610000  11.5250000  14.8660000
   8.0620000  12.7370000  15.2910000   7.3130000  12.3850000  15.0130000
   8.3120000  16.7630000  16.8310000   7.5330000  16.8730000  17.3760000
   8.6560000  17.6490000  16.7220000   8.2560000  16.8900000  16.8870000
  -0.5920000  12.8910000  10.9790000  -0.8580000  12.4280000  11.7740000
  -0.5760000  12.2140000  10.3030000  -0.6240000  12.7450000  10.9950000
   2.5190000  21.0310000  11.2820000   3.2890000  21.0520000  11.8490000
   2.8380000  20.6640000  10.4580000   2.6580000  20.9870000  11.2490000
   8.2550000  20.6680000  13.0120000   7.8890000  21.3090000  13.6220000
   7.4900000  20.2450000  12.6200000   8.1100000  20.6960000  13.0400000
   6.2370000  22.2680000  10.0290000   6.2790000  22.1340000   9.0820000
   7.1230000  22.5350000  10.2720000   6.3560000  22.2850000   9.9390000
   6.5800000  12.6980000  12.1170000   6.7120000  12.5540000  13.0540000
   5.7120000  13.0970000  12.0570000   6.4860000  12.7300000  12.2300000
  -4.6580000  15.0150000  16.3900000  -5.0660000  15.0140000  15.5230000
  -5.1440000  15.6780000  16.8810000  -4.7720000  15.1000000  16.3420000
  -5.2310000  12.2020000  15.1080000  -5.9890000  12.1890000  15.6930000
  -4.6990000  11.4580000  15.3890000  -5.2610000  12.1050000  15.2190000
  -0.5710000  16.4010000  14.9390000  -1.3960000  16.3830000  14.4540000
  -0.8220000  16.2150000  15.8440000  -0.7090000  16.3750000  14.9930000
  -5.7460000  18.0230000   9.6090000  -6.3490000  18.7600000   9.5130000
  -5.1170000  18.3130000  10.2700000  -5.7430000  18.1540000   9.6810000
   1.7010000  12.7950000  18.0680000   0.7490000  12.7320000  18.1390000
   2.0290000  12.0670000  18.5960000   1.6210000  12.6940000  18.1450000
   4.1800000  14.1200000  11.9320000   4.2840000  14.4640000  12.8190000
   4.0500000  14.8960000  11.3870000   4.1770000  14.2630000  11.9760000
   6.8220000  14.9680000  19.2590000   7.7340000  14.9790000  19.5520000
   6.8220000  14.3830000  18.5010000   6.9390000  14.8940000  19.2000000
  -3.5910000  11.2940000   9.9190000  -3.2490000  11.3030000  10.8130000
  -4.0760000  12.1160000   9.8410000  -3.6100000  11.4010000  10.0230000
  -0.9880000  15.8050000  17.5730000  -0.9020000  15.0210000  18.1160000
  -0.5480000  16.4920000  18.0730000  -0.9210000  15.7930000  17.7060000
   6.1080000   9.9440000  11.7870000   6.2360000  10.8590000  11.5350000
   5.1590000   9.8490000  11.8720000   6.0030000  10.0490000  11.7660000
   9.2830000  11.2820000   9.7880000   9.1070000  12.1230000   9.3670000
   8.4740000  10.7830000   9.6740000   9.1570000  11.3260000   9.7200000
  11.8520000  17.2100000  17.1660000  11.8660000  16.8970000  18.0710000
  11.8030000  18.1630000  17.2430000  11.8480000  17.2920000  17.2920000
   1.2450000  15.1460000  11.0490000   0.6190000  14.4220000  11.0730000
   1.4630000  15.3050000  11.9670000   1.1930000  15.0740000  11.1690000
   7.4170000  18.1110000  11.0500000   6.9600000  17.8700000  11.8560000
   8.3430000  17.9710000  11.2490000   7.4770000  18.0620000  11.1790000
   5.5420000  13.8280000  16.6380000   6.2380000  13.4420000  16.1050000
   4.9320000  13.1060000  16.7930000   5.5530000  13.6860000  16.5890000
   1.4430000  15.2640000  13.7130000   0.6200000  15.5470000  14.1090000
   2.1210000  15.6500000  14.2680000   1.4250000  15.3490000  13.8350000
   3.4620000  20.3650000  17.2610000   4.0070000  20.8660000  17.8680000
   2.7680000  20.9720000  17.0040000   3.4430000  20.5060000  17.3060000
  -8.5550000  21.9310000  18.0820000  -8.1610000  21.8610000  17.2120000
  -7.9430000  21.4760000  18.6590000  -8.4260000  21.8640000  18.0440000
   6.1660000  17.6110000  13.4540000   6.1230000  18.2300000  14.1840000
   5.8000000  16.8000000  13.8060000   6.1140000  17.5870000  13.5930000
   0.9160000  18.4750000  13.9330000   0.2440000  17.7940000  13.9630000
   0.9950000  18.6920000  13.0040000   0.8400000  18.4160000  13.8180000
  -9.4510000  17.7230000  13.6990000  -8.7860000  18.3230000  14.0370000
 -10.2840000  18.1570000  13.8880000  -9.4720000  17.8550000  13.7670000
  -1.7040000  20.9040000  10.9880000  -2.0870000  20.5950000  10.1670000
  -1.4650000  21.8150000  10.8130000  -1.7220000  20.9810000  10.8610000
  -7.4480000  12.3590000  16.6660000  -7.6860000  11.5400000  16.2320000
  -8.2090000  12.9270000  16.5390000  -7.5760000  12.3270000  16.5940000
  -2.8770000  11.1740000  12.6700000  -2.6320000  10.2990000  12.9710000
  -3.0920000  11.6510000  13.4710000  -2.8730000  11.1230000  12.8110000
   2.3550000  12.9230000  15.2080000   2.0610000  13.6380000  14.6440000
   2.0840000  13.1840000  16.0880000   2.2830000  13.0480000  15.2480000
  -6.0390000  15.4390000  10.7040000  -6.9640000  15.1960000  10.7420000
  -6.0430000  16.3590000  10.4390000  -6.1570000  15.5260000  10.6750000
  -4.0700000  19.7920000  13.9930000  -3.2470000  20.2780000  13.9550000
  -4.0190000  19.2970000  14.8100000  -3.9580000  19.7910000  14.0920000
  -1.7750000  21.4290000  13.9950000  -2.2980000  22.1320000  14.3810000
  -1.7630000  21.6250000  13.0590000  -1.8400000  21.5440000  13.9250000
   5.2680000  16.2960000  10.1590000   5.7460000  15.9430000   9.4100000
   5.7700000  17.0680000  10.4220000   5.3930000  16.3500000  10.0970000
   3.2080000  17.5110000  17.2720000   3.7060000  17.3040000  16.4810000
   3.3920000  18.4360000  17.4360000   3.2950000  17.6020000  17.1920000
  -2.1670000  16.2570000  11.0130000  -2.6480000  15.4400000  10.8820000
  -1.7330000  16.4160000  10.1750000  -2.1730000  16.1730000  10.8890000
  -8.2030000  21.2940000  11.4710000  -7.4360000  20.9710000  11.9460000
  -8.9450000  21.0550000  12.0260000  -8.2010000  21.2220000  11.6030000
   0.5290000  18.1070000  17.8950000   0.1220000  18.8670000  17.4790000
   1.3910000  18.0420000  17.4850000   0.5870000  18.1960000  17.7890000
   5.0660000  19.3460000  15.3770000   5.7400000  19.7580000  15.9170000
   4.2560000  19.7920000  15.6230000   5.0490000  19.4560000  15.4770000
  -6.7810000  19.8370000  18.8800000  -5.8230000  19.8210000  18.8610000
  -7.0260000  19.0230000  19.3200000  -6.6890000  19.7310000  18.9340000
   2.0620000  15.3230000  19.2290000   2.6880000  15.7730000  18.6620000
   1.9200000  14.4760000  18.8050000   2.1240000  15.2720000  19.1020000
   2.0860000  12.0680000  11.9850000   1.3270000  12.3160000  11.4570000
   2.6410000  12.8480000  11.9860000   2.0600000  12.2000000  11.9180000
  -5.3790000  15.3610000  13.7020000  -5.4690000  15.0900000  12.7890000
  -6.2770000  15.5180000  13.9950000  -5.5060000  15.3470000  13.6230000
   4.2080000  11.2520000  16.4980000   3.5460000  11.6580000  15.9380000
   4.9030000  10.9890000  15.8950000   4.2120000  11.2710000  16.3490000
  -3.4330000  18.2770000  16.1020000  -3.2450000  17.5250000  15.5400000
  -2.5780000  18.6680000  16.2720000  -3.3000000  18.2310000  16.0520000
  -4.7870000  10.1470000  18.2610000  -4.6150000  11.0680000  18.4600000
  -4.2210000   9.6630000  18.8620000  -4.6920000  10.2030000  18.3630000
  -3.9320000  19.2740000  18.6540000  -3.6750000  18.8560000  17.8320000
  -3.8490000  18.5820000  19.3100000  -3.8880000  19.1320000  18.6330000
   0.4390000  19.2510000  11.3130000   1.1690000  19.8700000  11.3020000
  -0.3430000  19.8020000  11.2820000   0.4320000  19.4010000  11.3070000
  -2.9060000  13.3690000  14.4120000  -3.0540000  14.3120000  14.3340000
  -3.6990000  13.0370000  14.8360000  -3.0260000  13.4470000  14.4560000
  -3.6500000  13.8580000  11.0070000  -4.5670000  13.6430000  11.1730000
  -3.1750000  13.4690000  11.7420000  -3.7070000  13.7810000  11.1220000
  -8.0450000  15.5850000  14.8900000  -7.6460000  16.1690000  15.5340000
  -8.5100000  16.1690000  14.2910000  -8.0530000  15.7350000  14.8960000
  -6.0860000  10.2640000  10.9350000  -6.0840000  11.0060000  11.5390000
  -5.5810000  10.5680000  10.1810000  -6.0210000  10.3980000  10.9160000
  -4.5590000  21.6780000  17.1840000  -4.6460000  22.4580000  17.7330000
  -4.4870000  20.9540000  17.8070000  -4.5610000  21.6850000  17.3340000
  -8.9290000  12.7620000  12.3890000  -8.9860000  12.5080000  11.4680000
  -9.4770000  13.5440000  12.4570000  -9.0060000  12.8300000  12.2800000
  -3.3750000  10.3350000  15.8200000  -3.7800000  10.0040000  16.6220000
  -3.2680000   9.5610000  15.2680000  -3.4130000  10.1940000  15.8520000
  -2.8320000  16.3810000  13.7060000  -2.4590000  16.3160000  12.8270000
  -3.7370000  16.0850000  13.6050000  -2.9000000  16.3340000  13.5810000
  -0.6870000  13.2780000  16.0910000  -1.5390000  13.1400000  15.6790000
  -0.6370000  14.2250000  16.2270000  -0.7890000  13.3820000  16.0560000
   0.3580000  16.9490000   9.3300000   0.3390000  17.5990000  10.0320000
   0.7130000  16.1610000   9.7420000   0.4010000  16.9320000   9.4720000
   0.0310000  11.4520000  14.1820000  -0.1940000  12.2370000  14.6810000
   0.9300000  11.6040000  13.8900000   0.1180000  11.5720000  14.2090000
   5.4580000  11.1720000  19.0520000   6.3290000  10.7790000  19.1090000
   5.3590000  11.4030000  18.1290000   5.5570000  11.1510000  18.9410000
   5.4830000  15.0370000  14.3000000   5.2620000  14.7870000  15.1980000
   6.2990000  14.5710000  14.1170000   5.5590000  14.9450000  14.3920000
   8.1740000  15.0610000  12.1360000   7.3510000  14.5740000  12.0880000
   7.9220000  15.9250000  12.4640000   8.0370000  15.1090000  12.1720000
  -6.7390000  13.7420000  19.0810000  -6.8330000  13.2750000  18.2510000
  -5.9160000  13.4190000  19.4460000  -6.6460000  13.6410000  19.0220000
  -7.3820000  19.4990000  14.3660000  -6.4250000  19.5310000  14.3930000
  -7.6520000  20.4160000  14.4040000  -7.2930000  19.6200000  14.3740000
  -6.0230000  12.7890000  12.3370000  -5.7140000  12.8540000  13.2410000
  -6.9400000  12.5310000  12.4160000  -6.1010000  12.7640000  12.4630000
   3.2870000  17.0500000  14.7210000   3.9070000  17.4940000  14.1420000
   2.4770000  17.5540000  14.6360000   3.2630000  17.1720000  14.6360000
  -1.0020000  19.5130000  16.0940000  -0.4880000  18.9130000  15.5540000
  -1.2760000  20.2030000  15.4900000  -0.9720000  19.5240000  15.9480000
   9.0550000  14.0780000  16.1390000   9.6370000  14.5630000  15.5530000
   8.4890000  14.7480000  16.5220000   9.0570000  14.2260000  16.1130000
  -3.2270000  12.8970000  18.0050000  -3.4040000  13.4870000  17.2730000
  -2.7410000  12.1700000  17.6150000  -3.1870000  12.8800000  17.8620000
  -9.6210000  19.4870000  16.5820000  -9.0250000  19.7430000  15.8780000
  -9.3190000  19.9820000  17.3440000  -9.5070000  19.5830000  16.5890000
   6.7480000  20.5840000  17.3680000   7.6010000  20.2430000  17.0980000
   6.7700000  20.5550000  18.3240000   6.8600000  20.5360000  17.4550000
   8.8240000  10.6100000  16.8760000   8.2280000  10.2600000  17.5380000
   9.5420000   9.9780000  16.8410000   8.8400000  10.4850000  16.9560000
   4.8940000  21.2550000  12.5830000   5.2900000  21.5960000  13.3850000
   5.3850000  21.6740000  11.8760000   5.0070000  21.3520000  12.5950000
  -2.8000000  12.2820000   4.0040000  -2.5720000  12.2540000   4.9330000
  -3.4290000  11.5700000   3.8910000  -2.8520000  12.1870000   4.1090000
  -4.8840000  10.5680000   3.5100000  -5.4440000  11.0160000   4.1440000
  -5.0310000   9.6370000   3.6770000  -4.9740000  10.5060000   3.6120000
  -4.0660000  18.8090000  -7.2420000  -4.2190000  19.2660000  -6.4150000
  -3.3530000  18.1990000  -7.0500000  -3.9940000  18.7890000  -7.1120000
  -0.6700000  14.0180000   3.3630000  -1.2730000  13.3760000   3.7380000
   0.1190000  13.9490000   3.9010000  -0.6460000  13.9280000   3.4800000
  -0.1320000  10.4550000   9.6410000   0.7600000  10.2260000   9.3770000
  -0.6540000  10.3340000   8.8480000  -0.0840000  10.4110000   9.5060000
   1.7530000  13.8440000   4.6310000   1.9310000  12.9620000   4.9570000
   2.0720000  14.4240000   5.3230000   1.8170000  13.8050000   4.7620000
   1.4410000  21.8400000  -3.1230000   1.0150000  21.2330000  -3.7270000
   0.7780000  22.5070000  -2.9450000   1.3020000  21.8480000  -3.1770000
   7.1930000  12.4720000  -3.8700000   7.2610000  11.5250000  -3.9940000
   8.0620000  12.7370000  -3.5690000   7.3130000  12.3850000  -3.8470000
   8.3120000  16.7630000  -2.0290000   7.5330000  16.8730000  -1.4840000
   8.6560000  17.6490000  -2.1380000   8.2560000  16.8900000  -1.9730000
  -0.5920000  12.8910000  -7.8810000  -0.8580000  12.4280000  -7.0860000
  -0.5760000  12.2140000  -8.5570000  -0.6240000  12.7450000  -7.8650000
  -0.3570000  20.0790000   5.4030000  -0.4850000  19.2140000   5.7920000
   0.0860000  19.9040000   4.5720000  -0.3170000  19.9460000   5.3460000
   2.5190000  21.0310000  -7.5780000   3.2890000  21.0520000  -7.0110000
   2.8380000  20.6640000  -8.4020000   2.6580000  20.9870000  -7.6110000
   8.2550000  20.6680000  -5.8480000   7.8890000  21.3090000  -5.2380000
   7.4900000  20.2450000  -6.2400000   8.1100000  20.6960000  -5.8200000
  -9.2340000  14.4090000   3.9600000  -8.9560000  14.9780000   4.6780000
  -9.8360000  13.7860000   4.3670000  -9.2750000  14.4020000   4.1040000
   6.2370000  22.2680000  -8.8310000   6.2790000  22.1340000  -9.7780000
   7.1230000  22.5350000  -8.5880000   6.3560000  22.2850000  -8.9210000
  -8.3610000  20.7450000   6.5530000  -9.2820000  20.5260000   6.4130000
  -8.2800000  20.8530000   7.5000000  -8.4690000  20.7310000   6.6560000
   6.5800000  12.6980000  -6.7430000   6.7120000  12.5540000  -5.8060000
   5.7120000  13.0970000  -6.8030000   6.4860000  12.7300000  -6.6300000
  -4.6580000  15.0150000  -2.4700000  -5.0660000  15.0140000  -3.3370000
  -5.1440000  15.6780000  -1.9790000  -4.7720000  15.1000000  -2.5180000
  -6.5390000  11.4110000   5.5480000  -6.3320000  12.3090000   5.8050000
  -6.8960000  11.0100000   6.3410000  -6.5580000  11.4740000   5.6820000
  -5.2310000  12.2020000  -3.7520000  -5.9890000  12.1890000  -3.1670000
  -4.6990000  11.4580000  -3.4710000  -5.2610000  12.1050000  -3.6410000
   1.8090000  15.9000000   6.5470000   2.3950000  16.2130000   7.2360000
   1.0830000  16.5250000   6.5470000   1.7910000  16.0190000   6.6350000
  -0.5710000  16.4010000  -3.9210000  -1.3960000  16.3830000  -4.4060000
  -0.8220000  16.2150000  -3.0160000  -0.7090000  16.3750000  -3.8670000
  -8.6700000  14.4130000   9.6010000  -8.8690000  14.4940000   8.6690000
  -9.4650000  14.7160000  10.0420000  -8.7980000  14.4620000   9.5380000
  -5.7460000  18.0230000  -9.2510000  -6.3490000  18.7600000  -9.3470000
  -5.1170000  18.3130000  -8.5900000  -5.7430000  18.1540000  -9.1790000
  -2.5960000  16.9760000   1.0240000  -1.7150000  17.2680000   1.2560000
  -2.5100000  16.6420000   0.1310000  -2.4720000  16.9710000   0.9390000
   1.7010000  12.7950000  -0.7920000   0.7490000  12.7320000  -0.7210000
   2.0290000  12.0670000  -0.2640000   1.6210000  12.6940000  -0.7150000
   6.8300000  20.8030000   1.3300000   7.2700000  21.3100000   2.0130000
   6.1580000  20.3060000   1.7960000   6.8010000  20.8040000   1.4770000
  -2.6500000  20.3240000   8.3940000  -2.8070000  19.3800000   8.3580000
  -2.7390000  20.6160000   7.4870000  -2.6820000  20.2400000   8.2730000
   4.1800000  14.1200000  -6.9280000   4.2840000  14.4640000  -6.0410000
   4.0500000  14.8960000  -7.4730000   4.1770000  14.2630000  -6.8840000
   6.8220000  14.9680000   0.3990000   7.7340000  14.9790000   0.6920000
   6.8220000  14.3830000  -0.3590000   6.9390000  14.8940000   0.3400000
   4.6670000  19.3050000   2.2500000   3.7920000  19.0480000   1.9600000
   5.0190000  18.5220000   2.6740000   4.6000000  19.1720000   2.2670000
  -3.5910000  11.2940000  -8.9410000  -3.2490000  11.3030000  -8.0470000
  -4.0760000  12.1160000  -9.0190000  -3.6100000  11.4010000  -8.8370000
  -8.4230000  11.2100000   0.9630000  -7.5880000  11.6640000   0.8390000
  -9.0110000  11.6090000   0.3230000  -8.3910000  11.3190000   0.8660000
  -7.3230000  10.3430000   7.9750000  -8.1570000   9.9160000   8.1760000
  -7.3560000  11.1700000   8.4550000  -7.4340000  10.3940000   8.0620000
  -0.9880000  15.8050000  -1.2870000  -0.9020000  15.0210000  -0.7440000
  -0.5480000  16.4920000  -0.7870000  -0.9210000  15.7930000  -1.1540000
   7.6740000  13.4230000   8.0530000   6.7750000  13.0940000   8.0480000
   7.9990000  13.2450000   7.1710000   7.6000000  13.3580000   7.9400000
   6.1080000   9.9440000  -7.0730000   6.2360000  10.8590000  -7.3250000
   5.1590000   9.8490000  -6.9880000   6.0030000  10.0490000  -7.0940000
   9.2830000  11.2820000  -9.0720000   9.1070000  12.1230000  -9.4930000
   8.4740000  10.7830000  -9.1860000   9.1570000  11.3260000  -9.1400000
  11.8520000  17.2100000  -1.6940000  11.8660000  16.8970000  -0.7890000
  11.8030000  18.1630000  -1.6170000  11.8480000  17.2920000  -1.5680000
   1.2450000  15.1460000  -7.8110000   0.6190000  14.4220000  -7.7870000
   1.4630000  15.3050000  -6.8930000   1.1930000  15.0740000  -7.6910000
  -2.0170000  16.7940000   4.3090000  -2.8620000  16.4740000   4.6260000
  -1.5440000  16.0030000   4.0500000  -2.0650000  16.6520000   4.3170000
  -5.0900000  21.9800000   8.6430000  -4.2790000  21.4920000   8.5010000
  -5.3590000  22.2570000   7.7670000  -5.0210000  21.9530000   8.5120000
   7.7110000  12.6610000   5.4840000   6.8450000  12.4970000   5.1130000
   8.2930000  12.0690000   5.0060000   7.6750000  12.5640000   5.3750000
   7.4170000  18.1110000  -7.8100000   6.9600000  17.8700000  -7.0040000
   8.3430000  17.9710000  -7.6110000   7.4770000  18.0620000  -7.6810000
  -2.8280000  21.0200000   5.6710000  -1.9480000  20.6470000   5.6190000
  -3.3660000  20.4390000   5.1340000  -2.7840000  20.8980000   5.5960000
   5.5420000  13.8280000  -2.2220000   6.2380000  13.4420000  -2.7550000
   4.9320000  13.1060000  -2.0670000   5.5530000  13.6860000  -2.2710000
   3.6160000  19.2770000   5.3200000   3.0590000  18.8830000   4.6480000
   3.0400000  19.8870000   5.7800000   3.4710000  19.3050000   5.2930000
   7.5300000  18.5380000   8.5140000   6.7070000  18.8780000   8.1650000
   7.3860000  18.4820000   9.4590000   7.4070000  18.5740000   8.5900000
   1.4430000  15.2640000  -5.1470000   0.6200000  15.5470000  -4.7510000
   2.1210000  15.6500000  -4.5920000   1.4250000  15.3490000  -5.0250000
  -5.5450000  18.8550000   2.9460000  -5.9230000  18.7270000   3.8160000
  -6.1080000  18.3440000   2.3640000  -5.6650000  18.7740000   2.9830000
   3.4620000  20.3650000  -1.5990000   4.0070000  20.8660000  -0.9920000
   2.7680000  20.9720000  -1.8560000   3.4430000  20.5060000  -1.5540000
  -8.5550000  21.9310000  -0.7780000  -8.1610000  21.8610000  -1.6480000
  -7.9430000  21.4760000  -0.2010000  -8.4260000  21.8640000  -0.8160000
   6.1660000  17.6110000  -5.4060000   6.1230000  18.2300000  -4.6760000
   5.8000000  16.8000000  -5.0540000   6.1140000  17.5870000  -5.2670000
   0.9160000  18.4750000  -4.9270000   0.2440000  17.7940000  -4.8970000
   0.9950000  18.6920000  -5.8560000   0.8400000  18.4160000  -5.0420000
  -5.3980000  13.3280000   9.0360000  -5.5500000  13.6080000   8.1340000
  -5.6340000  14.0880000   9.5670000  -5.4470000  13.4610000   8.9890000
  -3.4640000  17.4490000   8.1420000  -3.5790000  17.1650000   7.2350000
  -4.3560000  17.5520000   8.4750000  -3.5930000  17.4260000   8.0680000
  -4.4190000  15.7760000   2.9880000  -5.0090000  15.0370000   2.8360000
  -3.8070000  15.7480000   2.2530000  -4.4160000  15.6780000   2.8740000
  -3.0340000  21.9680000   1.0200000  -3.0750000  21.0130000   0.9830000
  -3.4890000  22.1960000   1.8300000  -3.0980000  21.8750000   1.1190000
   4.9310000  18.6200000   7.7020000   4.2400000  17.9810000   7.8700000
   4.7230000  18.9770000   6.8390000   4.8160000  18.5840000   7.6130000
  -9.4510000  17.7230000  -5.1610000  -8.7860000  18.3230000  -4.8230000
 -10.2840000  18.1570000  -4.9720000  -9.4720000  17.8550000  -5.0930000
  -1.7040000  20.9040000  -7.8720000  -2.0870000  20.5950000  -8.6930000
  -1.4650000  21.8150000  -8.0470000  -1.7220000  20.9810000  -7.9990000
  -7.4480000  12.3590000  -2.1940000  -7.6860000  11.5400000  -2.6280000
  -8.2090000  12.9270000  -2.3210000  -7.5760000  12.3270000  -2.2660000
  -2.8770000  11.1740000  -6.1900000  -2.6320000  10.2990000  -5.8890000
  -3.0920000  11.6510000  -5.3890000  -2.8730000  11.1230000  -6.0490000
   2.3550000  12.9230000  -3.6520000   2.0610000  13.6380000  -4.2160000
   2.0840000  13.1840000  -2.7720000   2.2830000  13.0480000  -3.6120000
  -6.0390000  15.4390000  -8.1560000  -6.9640000  15.1960000  -8.1180000
  -6.0430000  16.3590000  -8.4210000  -6.1570000  15.5260000  -8.1850000
  -4.0700000  19.7920000  -4.8670000  -3.2470000  20.2780000  -4.9050000
  -4.0190000  19.2970000  -4.0500000  -3.9580000  19.7910000  -4.7680000
  -1.7750000  21.4290000  -4.8650000  -2.2980000  22.1320000  -4.4790000
  -1.7630000  21.6250000  -5.8010000  -1.8400000  21.5440000  -4.9350000
   5.2680000  16.2960000  -8.7010000   5.7460000  15.9430000  -9.4500000
   5.7700000  17.0680000  -8.4380000   5.3930000  16.3500000  -8.7630000
  -5.8380000  21.7320000   6.1290000  -5.8770000  22.0490000   5.2270000
  -6.7110000  21.3730000   6.2940000  -5.9560000  21.7260000   6.0350000
   7.1200000   7.3760000   0.6980000   7.2660000   7.7810000   1.5530000
   6.1750000   7.4440000   0.5590000   7.0180000   7.4360000   0.7900000
  -2.9040000  19.4290000   3.1830000  -2.5790000  18.6260000   3.5900000
  -3.7730000  19.1970000   2.8570000  -2.9740000  19.2970000   3.1930000
  -7.2880000  20.3630000   9.1520000  -6.4860000  20.8730000   9.0420000
  -7.7380000  20.7810000   9.8860000  -7.2430000  20.4820000   9.2320000
   3.2080000  17.5110000  -1.5880000   3.7060000  17.3040000  -2.3790000
   3.3920000  18.4360000  -1.4240000   3.2950000  17.6020000  -1.6680000
  -2.1670000  16.2570000  -7.8470000  -2.6480000  15.4400000  -7.9780000
  -1.7330000  16.4160000  -8.6850000  -2.1730000  16.1730000  -7.9710000
  -8.2030000  21.2940000  -7.3890000  -7.4360000  20.9710000  -6.9140000
  -8.9450000  21.0550000  -6.8340000  -8.2010000  21.2220000  -7.2570000
  -8.8650000  15.0500000   1.3070000  -8.0670000  14.7000000   0.9120000
  -8.8860000  14.6700000   2.1850000  -8.7660000  14.9560000   1.3690000
   0.5290000  18.1070000  -0.9650000   0.1220000  18.8670000  -1.3810000
   1.3910000  18.0420000  -1.3750000   0.5870000  18.1960000  -1.0710000
   5.0660000  19.3460000  -3.4830000   5.7400000  19.7580000  -2.9430000
   4.2560000  19.7920000  -3.2370000   5.0490000  19.4560000  -3.3830000
  -6.7810000  19.8370000   0.0200000  -5.8230000  19.8210000   0.0010000
  -7.0260000  19.0230000   0.4600000  -6.6890000  19.7310000   0.0740000
   3.5230000  13.8470000   2.5590000   3.0690000  14.2890000   1.8410000
   2.9810000  14.0220000   3.3280000   3.3960000  13.9260000   2.5650000
   8.6880000  18.7750000   1.5030000   8.2990000  18.3010000   2.2390000
   8.1530000  19.5640000   1.4170000   8.5700000  18.8150000   1.5860000
   2.0620000  15.3230000   0.3690000   2.6880000  15.7730000  -0.1980000
   1.9200000  14.4760000  -0.0550000   2.1240000  15.2720000   0.2420000
   2.0860000  12.0680000  -6.8750000   1.3270000  12.3160000  -7.4030000
   2.6410000  12.8480000  -6.8740000   2.0600000  12.2000000  -6.9420000
  -5.3790000  15.3610000  -5.1580000  -5.4690000  15.0900000  -6.0710000
  -6.2770000  15.5180000  -4.8650000  -5.5060000  15.3470000  -5.2370000
   4.2080000  11.2520000  -2.3620000   3.5460000  11.6580000  -2.9220000
   4.9030000  10.9890000  -2.9650000   4.2120000  11.2710000  -2.5110000
   5.8210000  16.4840000   3.0170000   5.5560000  15.8320000   3.6670000
   6.0400000  15.9710000   2.2390000   5.8150000  16.3350000   3.0010000
  -3.4330000  18.2770000  -2.7580000  -3.2450000  17.5250000  -3.3200000
  -2.5780000  18.6680000  -2.5880000  -3.3000000  18.2310000  -2.8080000
  -1.7770000  13.1370000   6.4820000  -0.8550000  13.2130000   6.7260000
  -2.2290000  13.7540000   7.0570000  -1.7170000  13.2250000   6.5860000
  -4.7870000  10.1470000  -0.5990000  -4.6150000  11.0680000  -0.4000000
  -4.2210000   9.6630000   0.0020000  -4.6920000  10.2030000  -0.4970000
  -3.9320000  19.2740000  -0.2060000  -3.6750000  18.8560000  -1.0280000
  -3.8490000  18.5820000   0.4500000  -3.8880000  19.1320000  -0.2270000
   6.8740000  10.0130000   9.2170000   6.3330000   9.4980000   9.8150000
   6.4100000  10.8460000   9.1300000   6.7460000  10.0540000   9.2830000
   8.2430000  17.5640000   4.4150000   7.3470000  17.2390000   4.3280000
   8.1430000  18.4590000   4.7400000   8.1150000  17.6370000   4.4460000
   0.4390000  19.2510000  -7.5470000   1.1690000  19.8700000  -7.5580000
  -0.3430000  19.8020000  -7.5780000   0.4320000  19.4010000  -7.5530000
   0.0710000  16.6320000   1.5690000  -0.3780000  15.8780000   1.9510000
   0.7930000  16.2510000   1.0690000   0.1060000  16.4870000   1.5540000
   1.6060000  20.7560000   3.2810000   1.3300000  21.5800000   3.6830000
   2.5570000  20.7430000   3.3900000   1.6930000  20.8600000   3.3460000
  -2.9060000  13.3690000  -4.4480000  -3.0540000  14.3120000  -4.5260000
  -3.6990000  13.0370000  -4.0240000  -3.0260000  13.4470000  -4.4040000
   0.7450000  13.7130000   7.9710000   0.2790000  14.3110000   8.5550000
   1.3400000  14.2770000   7.4760000   0.7610000  13.8610000   7.9820000
  -3.6500000  13.8580000  -7.8530000  -4.5670000  13.6430000  -7.6870000
  -3.1750000  13.4690000  -7.1180000  -3.7070000  13.7810000  -7.7380000
  -7.0080000  18.6040000   5.4180000  -7.6870000  19.2430000   5.6380000
  -7.4170000  17.7550000   5.5810000  -7.1490000  18.5770000   5.4670000
  -8.8610000  11.5130000   4.0000000  -7.9980000  11.4740000   4.4140000
  -8.6740000  11.6630000   3.0730000  -8.7270000  11.5270000   3.9340000
   2.0570000  19.0460000   1.3670000   1.7890000  19.6890000   2.0240000
   1.2580000  18.8640000   0.8710000   1.9200000  19.1050000   1.3870000
  -9.4010000  16.6840000   7.9870000 -10.0010000  17.4170000   8.1280000
  -8.8550000  16.6670000   8.7730000  -9.4080000  16.7760000   8.1060000
  -8.0450000  15.5850000  -3.9700000  -7.6460000  16.1690000  -3.3260000
  -8.5100000  16.1690000  -4.5690000  -8.0530000  15.7350000  -3.9640000
   2.0340000  17.3800000   3.9290000   1.8710000  17.6890000   3.0380000
   1.1730000  17.1160000   4.2520000   1.9030000  17.3860000   3.8570000
   2.2560000  11.6010000   8.0670000   2.2530000  11.3110000   7.1550000
   1.5840000  12.2820000   8.1040000   2.1690000  11.6510000   7.9550000
  -6.0860000  10.2640000  -7.9250000  -6.0840000  11.0060000  -7.3210000
  -5.5810000  10.5680000  -8.6790000  -6.0210000  10.3980000  -7.9440000
   1.9660000  21.0430000   6.4650000   1.1480000  20.8870000   5.9940000
   2.0140000  21.9950000   6.5540000   1.8680000  21.1450000   6.4160000
   6.3160000  15.7390000   7.6960000   7.0290000  15.1070000   7.7910000
   6.7560000  16.5760000   7.5500000   6.4630000  15.7650000   7.6890000
  -7.6560000  17.5210000   1.2180000  -8.4350000  18.0270000   1.4490000
  -7.9170000  16.6080000   1.3410000  -7.7880000  17.4690000   1.2630000
  -4.5590000  21.6780000  -1.6760000  -4.6460000  22.4580000  -1.1270000
  -4.4870000  20.9540000  -1.0530000  -4.5610000  21.6850000  -1.5260000
  -8.9290000  12.7620000  -6.4710000  -8.9860000  12.5080000  -7.3920000
  -9.4770000  13.5440000  -6.4030000  -9.0060000  12.8300000  -6.5800000
  -4.4570000  16.8190000   5.5080000  -4.5480000  16.6990000   4.5630000
  -5.1810000  17.3970000   5.7460000  -4.5610000  16.8780000   5.4170000
  -3.3750000  10.3350000  -3.0400000  -3.7800000  10.0040000  -2.2380000
  -3.2680000   9.5610000  -3.5920000  -3.4130000  10.1940000  -3.0080000
  -2.8320000  16.3810000  -5.1540000  -2.4590000  16.3160000  -6.0330000
  -3.7370000  16.0850000  -5.2550000  -2.9000000  16.3340000  -5.2790000
  -0.6870000  13.2780000  -2.7690000  -1.5390000  13.1400000  -3.1810000
  -0.6370000  14.2250000  -2.6330000  -0.7890000  13.3820000  -2.8040000
  -5.8160000  13.9460000   6.4220000  -5.0240000  13.9790000   5.8850000
  -6.1750000  14.8320000   6.3740000  -5.7610000  14.0630000   6.3470000
   0.3580000  16.9490000  -9.5300000   0.3390000  17.5990000  -8.8280000
   0.7130000  16.1610000  -9.1180000   0.4010000  16.9320000  -9.3880000
   5.3410000  12.1990000   7.8910000   5.4020000  11.8520000   7.0010000
   4.4010000  12.2470000   8.0650000   5.2280000  12.1610000   7.7990000
   0.0310000  11.4520000  -4.6780000  -0.1940000  12.2370000  -4.1790000
   0.9300000  11.6040000  -4.9700000   0.1180000  11.5720000  -4.6510000
   5.4580000  11.1720000   0.1920000   6.3290000  10.7790000   0.2490000
   5.3590000  11.4030000  -0.7310000   5.5570000  11.1510000   0.0810000
   2.3660000  11.4390000   5.3260000   2.1060000  10.6630000   4.8290000
   3.3220000  11.4440000   5.2780000   2.4550000  11.3400000   5.2560000
   5.4830000  15.0370000  -4.5600000   5.2620000  14.7870000  -3.6620000
   6.2990000  14.5710000  -4.7430000   5.5590000  14.9450000  -4.4680000
  -0.7140000  13.5870000   0.6070000  -1.5650000  13.1560000   0.5200000
  -0.6150000  13.7340000   1.5480000  -0.8110000  13.5510000   0.7160000
  -2.0830000  10.6080000   7.7580000  -2.6370000  10.9190000   8.4740000
  -2.0220000  11.3540000   7.1610000  -2.1470000  10.7430000   7.7730000
   8.1740000  15.0610000  -6.7240000   7.3510000  14.5740000  -6.7720000
   7.9220000  15.9250000  -6.3960000   8.0370000  15.1090000  -6.6880000
   5.2310000  22.3940000   7.2950000   4.5910000  21.8610000   7.7670000
   5.1930000  22.0710000   6.3940000   5.1440000  22.2840000   7.2400000
  -6.7390000  13.7420000   0.2210000  -6.8330000  13.2750000  -0.6090000
  -5.9160000  13.4190000   0.5860000  -6.6460000  13.6410000   0.1620000
   7.8980000  20.2310000   5.1120000   7.0070000  20.4470000   5.3900000
   8.1750000  20.9840000   4.5900000   7.8190000  20.3550000   5.0810000
  -4.5760000  13.0000000   1.4770000  -4.1240000  12.4210000   2.0910000
  -4.0130000  13.0150000   0.7040000  -4.4470000  12.9280000   1.4570000
  -7.9940000  16.1000000   5.7460000  -8.5610000  16.4610000   5.0640000
  -8.4900000  16.2160000   6.5560000  -8.1300000  16.1610000   5.7620000
   5.3250000  21.2700000   4.8960000   4.7150000  20.5340000   4.9520000
   4.8930000  21.8940000   4.3130000   5.1920000  21.2550000   4.8290000
  -5.5770000  21.8580000   3.3210000  -6.0380000  22.2020000   2.5560000
  -5.4960000  20.9200000   3.1490000  -5.6270000  21.7820000   3.2010000
  -7.3820000  19.4990000  -4.4940000  -6.4250000  19.5310000  -4.4670000
  -7.6520000  20.4160000  -4.4560000  -7.2930000  19.6200000  -4.4860000
  -2.5410000  14.9580000   8.4490000  -3.3060000  14.5610000   8.8670000
  -2.7950000  15.8690000   8.3010000  -2.6720000  15.0240000   8.4840000
  -6.0230000  12.7890000  -6.5230000  -5.7140000  12.8540000  -5.6190000
  -6.9400000  12.5310000  -6.4440000  -6.1010000  12.7640000  -6.3970000
   3.2870000  17.0500000  -4.1390000   3.9070000  17.4940000  -4.7180000
   2.4770000  17.5540000  -4.2240000   3.2630000  17.1720000  -4.2240000
  -1.0020000  19.5130000  -2.7660000  -0.4880000  18.9130000  -3.3060000
  -1.2760000  20.2030000  -3.3700000  -0.9720000  19.5240000  -2.9120000
   5.0400000  12.7420000   4.7930000   4.7530000  13.5680000   5.1840000
   4.8170000  12.8260000   3.8660000   4.9740000  12.8590000   4.7250000
   9.0550000  14.0780000  -2.7210000   9.6370000  14.5630000  -3.3070000
   8.4890000  14.7480000  -2.3380000   9.0570000  14.2260000  -2.7470000
   3.4340000  20.8540000   8.5870000   2.6230000  20.8920000   8.0800000
   3.7980000  19.9910000   8.3920000   3.3770000  20.7490000   8.4970000
  -3.2270000  12.8970000  -0.8550000  -3.4040000  13.4870000  -1.5870000
  -2.7410000  12.1700000  -1.2450000  -3.1870000  12.8800000  -0.9980000
  -9.6210000  19.4870000  -2.2780000  -9.0250000  19.7430000  -2.9820000
  -9.3190000  19.9820000  -1.5160000  -9.5070000  19.5830000  -2.2710000
   6.7480000  20.5840000  -1.4920000   7.6010000  20.2430000  -1.7620000
   6.7700000  20.5550000  -0.5360000   6.8600000  20.5360000  -1.4050000
  -0.3220000  17.4950000   6.4130000  -1.0760000  17.1650000   5.9240000
  -0.5230000  17.2970000   7.3270000  -0.4440000  17.4270000   6.4670000
   3.2280000  16.8180000   8.4820000   2.4440000  16.7790000   9.0300000
   3.8650000  16.2670000   8.9360000   3.2090000  16.7430000   8.6100000
   8.8240000  10.6100000  -1.9840000   8.2280000  10.2600000  -1.3220000
   9.5420000   9.9780000  -2.0190000   8.8400000  10.4850000  -1.9040000
   4.8940000  21.2550000  -6.2770000   5.2900000  21.5960000  -5.4750000
   5.3850000  21.6740000  -6.9840000   5.0070000  21.3520000  -6.2650000
   4.6230000  15.3410000   5.6850000   5.3160000  15.5350000   6.3170000
   3.9870000  16.0470000   5.8030000   4.6300000  15.4560000   5.7810000
  -2.8000000  12.2820000 -14.8560000  -2.5720000  12.2540000 -13.9270000
  -3.4290000  11.5700000 -14.9690000  -2.8520000  12.1870000 -14.7510000
  -4.8840000  10.5680000 -15.3500000  -5.4440000  11.0160000 -14.7160000
  -5.0310000   9.6370000 -15.1830000  -4.9740000  10.5060000 -15.2480000
  -0.6700000  14.0180000 -15.4970000  -1.2730000  13.3760000 -15.1220000
   0.1190000  13.9490000 -14.9590000  -0.6460000  13.9280000 -15.3800000
  -0.1320000  10.4550000  -9.2190000   0.7600000  10.2260000  -9.4830000
  -0.6540000  10.3340000 -10.0120000  -0.0840000  10.4110000  -9.3540000
   1.7530000  13.8440000 -14.2290000   1.9310000  12.9620000 -13.9030000
   2.0720000  14.4240000 -13.5370000   1.8170000  13.8050000 -14.0980000
  -0.3570000  20.0790000 -13.4570000  -0.4850000  19.2140000 -13.0680000
   0.0860000  19.9040000 -14.2880000  -0.3170000  19.9460000 -13.5140000
  -9.2340000  14.4090000 -14.9000000  -8.9560000  14.9780000 -14.1820000
  -9.8360000  13.7860000 -14.4930000  -9.2750000  14.4020000 -14.7560000
  -8.3610000  20.7450000 -12.3070000  -9.2820000  20.5260000 -12.4470000
  -8.2800000  20.8530000 -11.3600000  -8.4690000  20.7310000 -12.2040000
  -6.5390000  11.4110000 -13.3120000  -6.3320000  12.3090000 -13.0550000
  -6.8960000  11.0100000 -12.5190000  -6.5580000  11.4740000 -13.1780000
   1.8090000  15.9000000 -12.3130000   2.3950000  16.2130000 -11.6240000
   1.0830000  16.5250000 -12.3130000   1.7910000  16.0190000 -12.2250000
  -8.6700000  14.4130000  -9.2590000  -8.8690000  14.4940000 -10.1910000
  -9.4650000  14.7160000  -8.8180000  -8.7980000  14.4620000  -9.3220000
  -2.5960000  16.9760000 -17.8360000  -1.7150000  17.2680000 -17.6040000
  -2.5100000  16.6420000 -18.7290000  -2.4720000  16.9710000 -17.9210000
   1.7010000  12.7950000 -19.6520000   0.7490000  12.7320000 -19.5810000
   2.0290000  12.0670000 -19.1240000   1.6210000  12.6940000 -19.5750000
   6.8300000  20.8030000 -17.5300000   7.2700000  21.3100000 -16.8470000
   6.1580000  20.3060000 -17.0640000   6.8010000  20.8040000 -17.3830000
  -2.6500000  20.3240000 -10.4660000  -2.8070000  19.3800000 -10.5020000
  -2.7390000  20.6160000 -11.3730000  -2.6820000  20.2400000 -10.5870000
   6.8220000  14.9680000 -18.4610000   7.7340000  14.9790000 -18.1680000
   6.8220000  14.3830000 -19.2190000   6.9390000  14.8940000 -18.5200000
   4.6670000  19.3050000 -16.6100000   3.7920000  19.0480000 -16.9000000
   5.0190000  18.5220000 -16.1860000   4.6000000  19.1720000 -16.5930000
  -8.4230000  11.2100000 -17.8970000  -7.5880000  11.6640000 -18.0210000
  -9.0110000  11.6090000 -18.5370000  -8.3910000  11.3190000 -17.9940000
  -7.3230000  10.3430000 -10.8850000  -8.1570000   9.9160000 -10.6840000
  -7.3560000  11.1700000 -10.4050000  -7.4340000  10.3940000 -10.7980000
   7.6740000  13.4230000 -10.8070000   6.7750000  13.0940000 -10.8120000
   7.9990000  13.2450000 -11.6890000   7.6000000  13.3580000 -10.9200000
  -2.0170000  16.7940000 -14.5510000  -2.8620000  16.4740000 -14.2340000
  -1.5440000  16.0030000 -14.8100000  -2.0650000  16.6520000 -14.5430000
  -5.0900000  21.9800000 -10.2170000  -4.2790000  21.4920000 -10.3590000
  -5.3590000  22.2570000 -11.0930000  -5.0210000  21.9530000 -10.3480000
   7.7110000  12.6610000 -13.3760000   6.8450000  12.4970000 -13.7470000
   8.2930000  12.0690000 -13.8540000   7.6750000  12.5640000 -13.4850000
  -2.8280000  21.0200000 -13.1890000  -1.9480000  20.6470000 -13.2410000
  -3.3660000  20.4390000 -13.7260000  -2.7840000  20.8980000 -13.2640000
   3.6160000  19.2770000 -13.5400000   3.0590000  18.8830000 -14.2120000
   3.0400000  19.8870000 -13.0800000   3.4710000  19.3050000 -13.5670000
   7.5300000  18.5380000 -10.3460000   6.7070000  18.8780000 -10.6950000
   7.3860000  18.4820000  -9.4010000   7.4070000  18.5740000 -10.2700000
  -5.5450000  18.8550000 -15.9140000  -5.9230000  18.7270000 -15.0440000
  -6.1080000  18.3440000 -16.4960000  -5.6650000  18.7740000 -15.8770000
  -5.3980000  13.3280000  -9.8240000  -5.5500000  13.6080000 -10.7260000
  -5.6340000  14.0880000  -9.2930000  -5.4470000  13.4610000  -9.8710000
  -3.4640000  17.4490000 -10.7180000  -3.5790000  17.1650000 -11.6250000
  -4.3560000  17.5520000 -10.3850000  -3.5930000  17.4260000 -10.7920000
  -4.4190000  15.7760000 -15.8720000  -5.0090000  15.0370000 -16.0240000
  -3.8070000  15.7480000 -16.6070000  -4.4160000  15.6780000 -15.9860000
  -3.0340000  21.9680000 -17.8400000  -3.0750000  21.0130000 -17.8770000
  -3.4890000  22.1960000 -17.0300000  -3.0980000  21.8750000 -17.7410000
   4.9310000  18.6200000 -11.1580000   4.2400000  17.9810000 -10.9900000
   4.7230000  18.9770000 -12.0210000   4.8160000  18.5840000 -11.2470000
  -5.8380000  21.7320000 -12.7310000  -5.8770000  22.0490000 -13.6330000
  -6.7110000  21.3730000 -12.5660000  -5.9560000  21.7260000 -12.8250000
   7.1200000   7.3760000 -18.1620000   7.2660000   7.7810000 -17.3070000
   6.1750000   7.4440000 -18.3010000   7.0180000   7.4360000 -18.0700000
  -2.9040000  19.4290000 -15.6770000  -2.5790000  18.6260000 -15.2700000
  -3.7730000  19.1970000 -16.0030000  -2.9740000  19.2970000 -15.6670000
  -7.2880000  20.3630000  -9.7080000  -6.4860000  20.8730000  -9.8180000
  -7.7380000  20.7810000  -8.9740000  -7.2430000  20.4820000  -9.6280000
  -8.8650000  15.0500000 -17.5530000  -8.0670000  14.7000000 -17.9480000
  -8.8860000  14.6700000 -16.6750000  -8.7660000  14.9560000 -17.4910000
  -6.7810000  19.8370000 -18.8400000  -5.8230000  19.8210000 -18.8590000
  -7.0260000  19.0230000 -18.4000000  -6.6890000  19.7310000 -18.7860000
   3.5230000  13.8470000 -16.3010000   3.0690000  14.2890000 -17.0190000
   2.9810000  14.0220000 -15.5320000   3.3960000  13.9260000 -16.2950000
   8.6880000  18.7750000 -17.3570000   8.2990000  18.3010000 -16.6210000
   8.1530000  19.5640000 -17.4430000   8.5700000  18.8150000 -17.2740000
   2.0620000  15.3230000 -18.4910000   2.6880000  15.7730000 -19.0580000
   1.9200000  14.4760000 -18.9150000   2.1240000  15.2720000 -18.6180000
   5.8210000  16.4840000 -15.8430000   5.5560000  15.8320000 -15.1930000
   6.0400000  15.9710000 -16.6210000   5.8150000  16.3350000 -15.8590000
  -1.7770000  13.1370000 -12.3780000  -0.8550000  13.2130000 -12.1340000
  -2.2290000  13.7540000 -11.8030000  -1.7170000  13.2250000 -12.2740000
  -4.7870000  10.1470000 -19.4590000  -4.6150000  11.0680000 -19.2600000
  -4.2210000   9.6630000 -18.8580000  -4.6920000  10.2030000 -19.3570000
   6.8740000  10.0130000  -9.6430000   6.3330000   9.4980000  -9.0450000
   6.4100000  10.8460000  -9.7300000   6.7460000  10.0540000  -9.5770000
   8.2430000  17.5640000 -14.4450000   7.3470000  17.2390000 -14.5320000
   8.1430000  18.4590000 -14.1200000   8.1150000  17.6370000 -14.4140000
   0.0710000  16.6320000 -17.2910000  -0.3780000  15.8780000 -16.9090000
   0.7930000  16.2510000 -17.7910000   0.1060000  16.4870000 -17.3060000
   1.6060000  20.7560000 -15.5790000   1.3300000  21.5800000 -15.1770000
   2.5570000  20.7430000 -15.4700000   1.6930000  20.8600000 -15.5140000
   0.7450000  13.7130000 -10.8890000   0.2790000  14.3110000 -10.3050000
   1.3400000  14.2770000 -11.3840000   0.7610000  13.8610000 -10.8780000
  -7.0080000  18.6040000 -13.4420000  -7.6870000  19.2430000 -13.2220000
  -7.4170000  17.7550000 -13.2790000  -7.1490000  18.5770000 -13.3930000
  -8.8610000  11.5130000 -14.8600000  -7.9980000  11.4740000 -14.4460000
  -8.6740000  11.6630000 -15.7870000  -8.7270000  11.5270000 -14.9260000
   2.0570000  19.0460000 -17.4930000   1.7890000  19.6890000 -16.8360000
   1.2580000  18.8640000 -17.9890000   1.9200000  19.1050000 -17.4730000
  -9.4010000  16.6840000 -10.8730000 -10.0010000  17.4170000 -10.7320000
  -8.8550000  16.6670000 -10.0870000  -9.4080000  16.7760000 -10.7540000
   2.0340000  17.3800000 -14.9310000   1.8710000  17.6890000 -15.8220000
   1.1730000  17.1160000 -14.6080000   1.9030000  17.3860000 -15.0030000
   2.2560000  11.6010000 -10.7930000   2.2530000  11.3110000 -11.7050000
   1.5840000  12.2820000 -10.7560000   2.1690000  11.6510000 -10.9050000
   1.9660000  21.0430000 -12.3950000   1.1480000  20.8870000 -12.8660000
   2.0140000  21.9950000 -12.3060000   1.8680000  21.1450000 -12.4440000
   6.3160000  15.7390000 -11.1640000   7.0290000  15.1070000 -11.0690000
   6.7560000  16.5760000 -11.3100000   6.4630000  15.7650000 -11.1710000
  -7.6560000  17.5210000 -17.6420000  -8.4350000  18.0270000 -17.4110000
  -7.9170000  16.6080000 -17.5190000  -7.7880000  17.4690000 -17.5970000
  -4.4570000  16.8190000 -13.3520000  -4.5480000  16.6990000 -14.2970000
  -5.1810000  17.3970000 -13.1140000  -4.5610000  16.8780000 -13.4430000
  -5.8160000  13.9460000 -12.4380000  -5.0240000  13.9790000 -12.9750000
  -6.1750000  14.8320000 -12.4860000  -5.7610000  14.0630000 -12.5130000
   5.3410000  12.1990000 -10.9690000   5.4020000  11.8520000 -11.8590000
   4.4010000  12.2470000 -10.7950000   5.2280000  12.1610000 -11.0610000
   5.4580000  11.1720000 -18.6680000   6.3290000  10.7790000 -18.6110000
   5.3590000  11.4030000 -19.5910000   5.5570000  11.1510000 -18.7790000
   2.3660000  11.4390000 -13.5340000   2.1060000  10.6630000 -14.0310000
   3.3220000  11.4440000 -13.5820000   2.4550000  11.3400000 -13.6040000
  -0.7140000  13.5870000 -18.2530000  -1.5650000  13.1560000 -18.3400000
  -0.6150000  13.7340000 -17.3120000  -0.8110000  13.5510000 -18.1440000
  -2.0830000  10.6080000 -11.1020000  -2.6370000  10.9190000 -10.3860000
  -2.0220000  11.3540000 -11.6990000  -2.1470000  10.7430000 -11.0870000
   5.2310000  22.3940000 -11.5650000   4.5910000  21.8610000 -11.0930000
   5.1930000  22.0710000 -12.4660000   5.1440000  22.2840000 -11.6200000
  -6.7390000  13.7420000 -18.6390000  -6.8330000  13.2750000 -19.4690000
  -5.9160000  13.4190000 -18.2740000  -6.6460000  13.6410000 -18.6980000
   7.8980000  20.2310000 -13.7480000   7.0070000  20.4470000 -13.4700000
   8.1750000  20.9840000 -14.2700000   7.8190000  20.3550000 -13.7790000
  -4.5760000  13.0000000 -17.3830000  -4.1240000  12.4210000 -16.7690000
  -4.0130000  13.0150000 -18.1560000  -4.4470000  12.9280000 -17.4030000
  -7.9940000  16.1000000 -13.1140000  -8.5610000  16.4610000 -13.7960000
  -8.4900000  16.2160000 -12.3040000  -8.1300000  16.1610000 -13.0980000
   5.3250000  21.2700000 -13.9640000   4.7150000  20.5340000 -13.9080000
   4.8930000  21.8940000 -14.5470000   5.1920000  21.2550000 -14.0310000
  -5.5770000  21.8580000 -15.5390000  -6.0380000  22.2020000 -16.3040000
  -5.4960000  20.9200000 -15.7110000  -5.6270000  21.7820000 -15.6590000
  -2.5410000  14.9580000 -10.4110000  -3.3060000  14.5610000  -9.9930000
  -2.7950000  15.8690000 -10.5590000  -2.6720000  15.0240000 -10.3760000
   5.0400000  12.7420000 -14.0670000   4.7530000  13.5680000 -13.6760000
   4.8170000  12.8260000 -14.9940000   4.9740000  12.8590000 -14.1350000
   3.4340000  20.8540000 -10.2730000   2.6230000  20.8920000 -10.7800000
   3.7980000  19.9910000 -10.4680000   3.3770000  20.7490000 -10.3630000
  -0.3220000  17.4950000 -12.4470000  -1.0760000  17.1650000 -12.9360000
  -0.5230000  17.2970000 -11.5330000  -0.4440000  17.4270000 -12.3930000
   3.2280000  16.8180000 -10.3780000   2.4440000  16.7790000  -9.8300000
   3.8650000  16.2670000  -9.9240000   3.2090000  16.7430000 -10.2500000
   4.6230000  15.3410000 -13.1750000   5.3160000  15.5350000 -12.5430000
   3.9870000  16.0470000 -13.0570000   4.6300000  15.4560000 -13.0790000
  -0.6360000   5.0450000  16.2870000  -0.8100000   5.2060000  17.2150000
  -1.4010000   4.5590000  15.9810000  -0.7560000   5.0030000  16.3670000
  -4.0660000  -0.0580000  11.6180000  -4.2190000   0.3990000  12.4450000
  -3.3530000  -0.6680000  11.8100000  -3.9940000  -0.0780000  11.7480000
   6.0960000   6.1010000   9.8040000   5.2340000   6.4290000   9.5480000
   6.0000000   5.1490000   9.8030000   5.9730000   6.0210000   9.7710000
  -7.1780000   6.1980000  16.5810000  -7.1410000   7.0910000  16.2370000
  -7.9770000   6.1770000  17.1070000  -7.2760000   6.3100000  16.6040000
  -2.4670000   7.9880000  13.2700000  -3.2670000   7.4610000  13.2800000
  -2.1230000   7.8850000  12.3830000  -2.5250000   7.9070000  13.1580000
   1.4410000   2.9730000  15.7370000   1.0150000   2.3660000  15.1330000
   0.7780000   3.6400000  15.9150000   1.3020000   2.9810000  15.6830000
   7.1930000  -6.3960000  14.9900000   7.2610000  -7.3430000  14.8660000
   8.0620000  -6.1300000  15.2910000   7.3130000  -6.4820000  15.0130000
   8.3120000  -2.1040000  16.8310000   7.5330000  -1.9940000  17.3760000
   8.6560000  -1.2180000  16.7220000   8.2560000  -1.9770000  16.8870000
  -0.5920000  -5.9760000  10.9790000  -0.8580000  -6.4390000  11.7740000
  -0.5760000  -6.6530000  10.3030000  -0.6240000  -6.1220000  10.9950000
   2.5190000   2.1640000  11.2820000   3.2890000   2.1850000  11.8490000
   2.8380000   1.7970000  10.4580000   2.6580000   2.1200000  11.2490000
   8.2550000   1.8010000  13.0120000   7.8890000   2.4420000  13.6220000
   7.4900000   1.3790000  12.6200000   8.1100000   1.8290000  13.0400000
   6.2370000   3.4010000  10.0290000   6.2790000   3.2670000   9.0820000
   7.1230000   3.6680000  10.2720000   6.3560000   3.4180000   9.9390000
   6.5800000  -6.1690000  12.1170000   6.7120000  -6.3130000  13.0540000
   5.7120000  -5.7710000  12.0570000   6.4860000  -6.1370000  12.2300000
   3.2300000   5.5680000  16.6180000   3.4060000   6.4180000  16.2150000
   2.4710000   5.2310000  16.1440000   3.1560000   5.6340000  16.5060000
   3.0200000   8.8930000  17.8700000   3.6060000   9.6300000  17.6950000
   2.2380000   9.0790000  17.3510000   2.9950000   9.0110000  17.7810000
  -4.6580000  -3.8520000  16.3900000  -5.0660000  -3.8530000  15.5230000
  -5.1440000  -3.1890000  16.8810000  -4.7720000  -3.7680000  16.3420000
  -5.2310000  -6.6650000  15.1080000  -5.9890000  -6.6780000  15.6930000
  -4.6990000  -7.4090000  15.3890000  -5.2610000  -6.7630000  15.2190000
  -0.5710000  -2.4660000  14.9390000  -1.3960000  -2.4850000  14.4540000
  -0.8220000  -2.6520000  15.8440000  -0.7090000  -2.4920000  14.9930000
  -5.2190000   5.3920000  18.2710000  -5.9430000   5.6950000  17.7230000
  -4.6250000   6.1420000  18.3190000  -5.2360000   5.5270000  18.2070000
  -5.7460000  -0.8440000   9.6090000  -6.3490000  -0.1070000   9.5130000
  -5.1170000  -0.5540000  10.2700000  -5.7430000  -0.7130000   9.6810000
  -1.3190000   7.6180000  10.9020000  -0.8600000   6.7960000  11.0740000
  -0.6210000   8.2580000  10.7630000  -1.1710000   7.5950000  10.9060000
   1.7010000  -6.0720000  18.0680000   0.7490000  -6.1360000  18.1390000
   2.0290000  -6.8000000  18.5960000   1.6210000  -6.1730000  18.1450000
   1.5570000   4.7650000  11.3560000   1.8610000   3.8720000  11.5120000
   2.0840000   5.3050000  11.9450000   1.6630000   4.7200000  11.4510000
   4.1800000  -4.7470000  11.9320000   4.2840000  -4.4040000  12.8190000
   4.0500000  -3.9710000  11.3870000   4.1770000  -4.6040000  11.9760000
   6.8220000  -3.8990000  19.2590000   7.7340000  -3.8880000  19.5520000
   6.8220000  -4.4840000  18.5010000   6.9390000  -3.9730000  19.2000000
  -3.5910000  -7.5730000   9.9190000  -3.2490000  -7.5640000  10.8130000
  -4.0760000  -6.7510000   9.8410000  -3.6100000  -7.4660000  10.0230000
  -0.9880000  -3.0620000  17.5730000  -0.9020000  -3.8460000  18.1160000
  -0.5480000  -2.3750000  18.0730000  -0.9210000  -3.0750000  17.7060000
   7.6900000   5.6780000  12.9090000   7.8110000   6.5530000  12.5410000
   7.8990000   5.0840000  12.1880000   7.7320000   5.7140000  12.7690000
   6.1080000  -8.9240000  11.7870000   6.2360000  -8.0080000  11.5350000
   5.1590000  -9.0190000  11.8720000   6.0030000  -8.8190000  11.7660000
  -7.9130000   9.1600000  14.0920000  -8.6950000   9.0290000  13.5540000
  -7.9430000  10.0850000  14.3360000  -8.0170000   9.2620000  14.0540000
  -1.5600000   5.4260000  18.7820000  -2.0400000   4.6180000  18.9590000
  -0.8300000   5.4120000  19.4010000  -1.5280000   5.3210000  18.8840000
   9.2830000  -7.5860000   9.7880000   9.1070000  -6.7440000   9.3670000
   8.4740000  -8.0850000   9.6740000   9.1570000  -7.5410000   9.7200000
  11.8520000  -1.6570000  17.1660000  11.8660000  -1.9700000  18.0710000
  11.8030000  -0.7040000  17.2430000  11.8480000  -1.5750000  17.2920000
   1.2450000  -3.7220000  11.0490000   0.6190000  -4.4450000  11.0730000
   1.4630000  -3.5620000  11.9670000   1.1930000  -3.7930000  11.1690000
  -6.1820000   7.6850000  12.6260000  -6.7640000   8.1830000  13.1990000
  -5.9530000   8.2960000  11.9260000  -6.2270000   7.8270000  12.6100000
   7.4170000  -0.7560000  11.0500000   6.9600000  -0.9970000  11.8560000
   8.3430000  -0.8960000  11.2490000   7.4770000  -0.8050000  11.1790000
   5.5420000  -5.0390000  16.6380000   6.2380000  -5.4250000  16.1050000
   4.9320000  -5.7610000  16.7930000   5.5530000  -5.1810000  16.5890000
   1.4430000  -3.6030000  13.7130000   0.6200000  -3.3200000  14.1090000
   2.1210000  -3.2180000  14.2680000   1.4250000  -3.5180000  13.8350000
   3.4620000   1.4980000  17.2610000   4.0070000   1.9990000  17.8680000
   2.7680000   2.1050000  17.0040000   3.4430000   1.6390000  17.3060000
  -8.5550000   3.0640000  18.0820000  -8.1610000   2.9940000  17.2120000
  -7.9430000   2.6090000  18.6590000  -8.4260000   2.9970000  18.0440000
   6.1660000  -1.2560000  13.4540000   6.1230000  -0.6370000  14.1840000
   5.8000000  -2.0670000  13.8060000   6.1140000  -1.2800000  13.5930000
   0.9160000  -0.3920000  13.9330000   0.2440000  -1.0730000  13.9630000
   0.9950000  -0.1750000  13.0040000   0.8400000  -0.4510000  13.8180000
  -9.4510000  -1.1440000  13.6990000  -8.7860000  -0.5440000  14.0370000
 -10.2840000  -0.7100000  13.8880000  -9.4720000  -1.0120000  13.7670000
  -7.1180000   3.3010000  15.9010000  -6.4390000   3.0210000  16.5150000
  -7.0210000   4.2510000  15.8520000  -7.0190000   3.3870000  15.9740000
  -1.7040000   2.0370000  10.9880000  -2.0870000   1.7280000  10.1670000
  -1.4650000   2.9480000  10.8130000  -1.7220000   2.1140000  10.8610000
  -7.4480000  -6.5080000  16.6660000  -7.6860000  -7.3270000  16.2320000
  -8.2090000  -5.9410000  16.5390000  -7.5760000  -6.5400000  16.5940000
  -2.8770000  -7.6930000  12.6700000  -2.6320000  -8.5690000  12.9710000
  -3.0920000  -7.2160000  13.4710000  -2.8730000  -7.7440000  12.8110000
   2.3550000  -5.9440000  15.2080000   2.0610000  -5.2290000  14.6440000
   2.0840000  -5.6830000  16.0880000   2.2830000  -5.8190000  15.2480000
   6.3080000   4.6080000  16.9090000   5.3930000   4.6180000  16.6260000
   6.4300000   3.7400000  17.2940000   6.2060000   4.4980000  16.9220000
  -6.0390000  -3.4280000  10.7040000  -6.9640000  -3.6720000  10.7420000
  -6.0430000  -2.5080000  10.4390000  -6.1570000  -3.3410000  10.6750000
  -4.0700000   0.9250000  13.9930000  -3.2470000   1.4110000  13.9550000
  -4.0190000   0.4300000  14.8100000  -3.9580000   0.9240000  14.0920000
  -7.3790000   8.8000000  18.0690000  -7.9210000   9.2230000  18.7360000
  -6.4810000   8.9960000  18.3310000  -7.3350000   8.8800000  18.1880000
  -1.7750000   2.5620000  13.9950000  -2.2980000   3.2650000  14.3810000
  -1.7630000   2.7580000  13.0590000  -1.8400000   2.6770000  13.9250000
   5.2680000  -2.5720000  10.1590000   5.7460000  -2.9250000   9.4100000
   5.7700000  -1.7990000  10.4220000   5.3930000  -2.5170000  10.0970000
   3.2080000  -1.3560000  17.2720000   3.7060000  -1.5630000  16.4810000
   3.3920000  -0.4310000  17.4360000   3.2950000  -1.2640000  17.1920000
  -2.1670000  -2.6100000  11.0130000  -2.6480000  -3.4270000  10.8820000
  -1.7330000  -2.4510000  10.1750000  -2.1730000  -2.6950000  10.8890000
  -8.2030000   2.4270000  11.4710000  -7.4360000   2.1040000  11.9460000
  -8.9450000   2.1880000  12.0260000  -8.2010000   2.3550000  11.6030000
   9.2290000   5.6940000  18.1260000   8.3850000   6.1070000  18.3100000
   9.0970000   4.7720000  18.3440000   9.1040000   5.6290000  18.1770000
   0.5290000  -0.7600000  17.8950000   0.1220000   0.0000000  17.4790000
   1.3910000  -0.8250000  17.4850000   0.5870000  -0.6710000  17.7890000
   5.0660000   0.4790000  15.3770000   5.7400000   0.8910000  15.9170000
   4.2560000   0.9250000  15.6230000   5.0490000   0.5890000  15.4770000
  -6.7810000   0.9700000  18.8800000  -5.8230000   0.9540000  18.8610000
  -7.0260000   0.1560000  19.3200000  -6.6890000   0.8640000  18.9340000
   2.0620000  -3.5440000  19.2290000   2.6880000  -3.0950000  18.6620000
   1.9200000  -4.3910000  18.8050000   2.1240000  -3.5950000  19.1020000
   2.0860000  -6.7990000  11.9850000   1.3270000  -6.5510000  11.4570000
   2.6410000  -6.0190000  11.9860000   2.0600000  -6.6670000  11.9180000
  -5.3790000  -3.5070000  13.7020000  -5.4690000  -3.7770000  12.7890000
  -6.2770000  -3.3500000  13.9950000  -5.5060000  -3.5200000  13.6230000
   4.2080000  -7.6150000  16.4980000   3.5460000  -7.2100000  15.9380000
   4.9030000  -7.8790000  15.8950000   4.2120000  -7.5960000  16.3490000
  -3.4330000  -0.5900000  16.1020000  -3.2450000  -1.3420000  15.5400000
  -2.5780000  -0.1990000  16.2720000  -3.3000000  -0.6360000  16.0520000
  -4.7870000  -8.7210000  18.2610000  -4.6150000  -7.7990000  18.4600000
  -4.2210000  -9.2040000  18.8620000  -4.6920000  -8.6650000  18.3630000
  -0.9830000   4.6170000  10.3850000  -0.1390000   4.5790000  10.8360000
  -0.7600000   4.8220000   9.4770000  -0.8460000   4.6380000  10.3270000
  -3.9320000   0.4070000  18.6540000  -3.6750000  -0.0110000  17.8320000
  -3.8490000  -0.2850000  19.3100000  -3.8880000   0.2650000  18.6330000
   3.3800000   4.8620000  19.1130000   3.4780000   5.1090000  18.1930000
   2.5260000   5.2120000  19.3650000   3.2830000   4.9380000  19.0280000
   0.7700000   9.2760000  16.4520000   0.5850000   8.4490000  16.0060000
   0.4580000   9.9490000  15.8470000   0.7060000   9.2560000  16.3170000
   2.3580000   8.5110000   9.5420000   2.5160000   9.3500000   9.1090000
   2.6200000   8.6580000  10.4510000   2.4120000   8.6370000   9.6030000
   4.4680000   7.2880000  19.6520000   3.9240000   7.8880000  19.1410000
   4.0770000   6.4270000  19.5060000   4.3490000   7.2550000  19.5680000
  -1.4400000   9.6560000  18.6250000  -1.4740000   8.9690000  19.2900000
  -0.9640000   9.2610000  17.8950000  -1.3840000   9.5180000  18.6170000
   0.4390000   0.3840000  11.3130000   1.1690000   1.0040000  11.3020000
  -0.3430000   0.9350000  11.2820000   0.4320000   0.5340000  11.3070000
  -2.9060000  -5.4980000  14.4120000  -3.0540000  -4.5560000  14.3340000
  -3.6990000  -5.8310000  14.8360000  -3.0260000  -5.4200000  14.4560000
  -3.6500000  -5.0090000  11.0070000  -4.5670000  -5.2240000  11.1730000
  -3.1750000  -5.3980000  11.7420000  -3.7070000  -5.0870000  11.1220000
   3.9520000   7.7420000  15.2420000   3.5840000   8.3230000  15.9070000
   4.8430000   8.0650000  15.1080000   4.0190000   7.8580000  15.3100000
  -8.0450000  -3.2820000  14.8900000  -7.6460000  -2.6970000  15.5340000
  -8.5100000  -2.6970000  14.2910000  -8.0530000  -3.1320000  14.8960000
  -6.0860000  -8.6040000  10.9350000  -6.0840000  -7.8620000  11.5390000
  -5.5810000  -8.3000000  10.1810000  -6.0210000  -8.4700000  10.9160000
  -5.1690000   3.4330000  11.2190000  -5.0830000   3.3820000  10.2670000
  -5.7230000   4.2010000  11.3680000  -5.2290000   3.5250000  11.1160000
  -4.5590000   2.8110000  17.1840000  -4.6460000   3.5910000  17.7330000
  -4.4870000   2.0870000  17.8070000  -4.5610000   2.8180000  17.3340000
  -8.9290000  -6.1060000  12.3890000  -8.9860000  -6.3590000  11.4680000
  -9.4770000  -5.3230000  12.4570000  -9.0060000  -6.0370000  12.2800000
  -3.3750000  -8.5330000  15.8200000  -3.7800000  -8.8640000  16.6220000
  -3.2680000  -9.3070000  15.2680000  -3.4130000  -8.6740000  15.8520000
   7.7100000   6.9270000  15.5600000   7.7800000   6.2980000  16.2770000
   7.7760000   6.3950000  14.7670000   7.7270000   6.7790000  15.5500000
  -2.8320000  -2.4860000  13.7060000  -2.4590000  -2.5510000  12.8270000
  -3.7370000  -2.7820000  13.6050000  -2.9000000  -2.5330000  13.5810000
  -3.1330000   4.6710000  12.1400000  -3.8650000   4.1820000  11.7640000
  -2.4730000   4.6840000  11.4480000  -3.1430000   4.6100000  12.0040000
  -0.6870000  -5.5890000  16.0910000  -1.5390000  -5.7270000  15.6790000
  -0.6370000  -4.6420000  16.2270000  -0.7890000  -5.4860000  16.0560000
   0.3580000  -1.9180000   9.3300000   0.3390000  -1.2680000  10.0320000
   0.7130000  -2.7070000   9.7420000   0.4010000  -1.9350000   9.4720000
   2.3200000   6.9610000  13.2000000   1.6350000   6.8890000  13.8650000
   3.1180000   7.1390000  13.6970000   2.3340000   6.9740000  13.3490000
   0.0310000  -7.4150000  14.1820000  -0.1940000  -6.6310000  14.6810000
   0.9300000  -7.2630000  13.8900000   0.1180000  -7.2950000  14.2090000
   5.4580000  -7.6950000  19.0520000   6.3290000  -8.0880000  19.1090000
   5.3590000  -7.4640000  18.1290000   5.5570000  -7.7160000  18.9410000
   5.4830000  -3.8300000  14.3000000   5.2620000  -4.0800000  15.1980000
   6.2990000  -4.2960000  14.1170000   5.5590000  -3.9220000  14.3920000
   3.3290000   5.9330000   9.4470000   2.9290000   6.8010000   9.4970000
   2.8530000   5.4120000  10.0940000   3.2170000   5.9780000   9.5360000
  -3.2930000   4.2540000  15.3030000  -3.9280000   3.7990000  15.8540000
  -3.7800000   4.9880000  14.9300000  -3.4350000   4.2900000  15.3260000
   8.1740000  -3.8060000  12.1360000   7.3510000  -4.2930000  12.0880000
   7.9220000  -2.9420000  12.4640000   8.0370000  -3.7580000  12.1720000
  -6.7390000  -5.1250000  19.0810000  -6.8330000  -5.5930000  18.2510000
  -5.9160000  -5.4480000  19.4460000  -6.6460000  -5.2260000  19.0220000
   6.9660000   3.3860000  14.4040000   6.9880000   3.5020000  15.3540000
   7.1390000   4.2590000  14.0530000   6.9910000   3.5130000  14.4810000
   6.3410000   9.3260000  14.7110000   6.0770000   9.2910000  13.7920000
   6.9630000   8.6050000  14.8100000   6.3870000   9.2290000  14.6060000
   3.5150000   9.3220000  12.2220000   2.9990000   8.6370000  12.6480000
   3.0320000  10.1290000  12.3960000   3.3870000   9.3370000  12.2990000
  -0.1780000   7.2770000  14.7520000  -0.4160000   6.4640000  15.1960000
  -0.9830000   7.5550000  14.3150000  -0.3110000   7.2090000  14.7530000
  -7.3820000   0.6320000  14.3660000  -6.4250000   0.6640000  14.3930000
  -7.6520000   1.5490000  14.4040000  -7.2930000   0.7530000  14.3740000
  -6.0230000  -6.0780000  12.3370000  -5.7140000  -6.0130000  13.2410000
  -6.9400000  -6.3370000  12.4160000  -6.1010000  -6.1030000  12.4630000
   3.2870000  -1.8170000  14.7210000   3.9070000  -1.3730000  14.1420000
   2.4770000  -1.3130000  14.6360000   3.2630000  -1.6950000  14.6360000
 -10.0940000   4.2350000  10.6820000  -9.4650000   3.7120000  11.1810000
  -9.6000000   4.5410000   9.9210000  -9.9500000   4.2070000  10.6490000
  -4.4210000   6.3190000  13.9530000  -5.1210000   6.7170000  13.4360000
  -3.9890000   5.7160000  13.3470000  -4.4560000   6.2930000  13.8090000
  -1.0020000   0.6460000  16.0940000  -0.4880000   0.0460000  15.5540000
  -1.2760000   1.3360000  15.4900000  -0.9720000   0.6570000  15.9480000
   8.6930000   8.5050000  12.3830000   9.2800000   8.3280000  11.6480000
   8.1020000   9.1850000  12.0590000   8.6920000   8.5690000  12.2470000
  -8.5160000   8.0010000  10.1400000  -7.9580000   7.2420000  10.3120000
  -7.9480000   8.7550000  10.2960000  -8.3710000   8.0000000  10.1820000
   9.0550000  -4.7890000  16.1390000   9.6370000  -4.3040000  15.5530000
   8.4890000  -4.1190000  16.5220000   9.0570000  -4.6410000  16.1130000
  -3.2270000  -5.9710000  18.0050000  -3.4040000  -5.3800000  17.2730000
  -2.7410000  -6.6980000  17.6150000  -3.1870000  -5.9870000  17.8620000
  -9.6210000   0.6200000  16.5820000  -9.0250000   0.8760000  15.8780000
  -9.3190000   1.1150000  17.3440000  -9.5070000   0.7160000  16.5890000
   6.7480000   1.7170000  17.3680000   7.6010000   1.3760000  17.0980000
   6.7700000   1.6880000  18.3240000   6.8600000   1.6690000  17.4550000
   8.8240000  -8.2580000  16.8760000   8.2280000  -8.6080000  17.5380000
   9.5420000  -8.8900000  16.8410000   8.8400000  -8.3830000  16.9560000
   4.8940000   2.3880000  12.5830000   5.2900000   2.7290000  13.3850000
   5.3850000   2.8070000  11.8760000   5.0070000   2.4850000  12.5950000
  -2.8000000  -6.5860000   4.0040000  -2.5720000  -6.6130000   4.9330000
  -3.4290000  -7.2980000   3.8910000  -2.8520000  -6.6810000   4.1090000
  -5.4010000   7.6010000   4.2640000  -6.3560000   7.5330000   4.2320000
  -5.2120000   7.9080000   5.1500000  -5.4990000   7.6320000   4.3730000
  -4.8840000  -8.3000000   3.5100000  -5.4440000  -7.8520000   4.1440000
  -5.0310000  -9.2310000   3.6770000  -4.9740000  -8.3620000   3.6120000
  -4.0660000  -0.0580000  -7.2420000  -4.2190000   0.3990000  -6.4150000
  -3.3530000  -0.6680000  -7.0500000  -3.9940000  -0.0780000  -7.1120000
  -0.1320000  -8.4130000   9.6410000   0.7600000  -8.6420000   9.3770000
  -0.6540000  -8.5340000   8.8480000  -0.0840000  -8.4570000   9.5060000
   6.0960000   6.1010000  -9.0560000   5.2340000   6.4290000  -9.3120000
   6.0000000   5.1490000  -9.0570000   5.9730000   6.0210000  -9.0890000
  -7.1780000   6.1980000  -2.2790000  -7.1410000   7.0910000  -2.6230000
  -7.9770000   6.1770000  -1.7530000  -7.2760000   6.3100000  -2.2560000
  -2.4670000   7.9880000  -5.5900000  -3.2670000   7.4610000  -5.5800000
  -2.1230000   7.8850000  -6.4770000  -2.5250000   7.9070000  -5.7020000
   7.1930000  -6.3960000  -3.8700000   7.2610000  -7.3430000  -3.9940000
   8.0620000  -6.1300000  -3.5690000   7.3130000  -6.4820000  -3.8470000
   8.3120000  -2.1040000  -2.0290000   7.5330000  -1.9940000  -1.4840000
   8.6560000  -1.2180000  -2.1380000   8.2560000  -1.9770000  -1.9730000
  -0.5920000  -5.9760000  -7.8810000  -0.8580000  -6.4390000  -7.0860000
  -0.5760000  -6.6530000  -8.5570000  -0.6240000  -6.1220000  -7.8650000
  -0.3570000   1.2120000   5.4030000  -0.4850000   0.3470000   5.7920000
   0.0860000   1.0370000   4.5720000  -0.3170000   1.0790000   5.3460000
   2.5190000   2.1640000  -7.5780000   3.2890000   2.1850000  -7.0110000
   2.8380000   1.7970000  -8.4020000   2.6580000   2.1200000  -7.6110000
   8.2550000   1.8010000  -5.8480000   7.8890000   2.4420000  -5.2380000
   7.4900000   1.3790000  -6.2400000   8.1100000   1.8290000  -5.8200000
  -9.2340000  -4.4580000   3.9600000  -8.9560000  -3.8890000   4.6780000
  -9.8360000  -5.0810000   4.3670000  -9.2750000  -4.4650000   4.1040000
   6.2370000   3.4010000  -8.8310000   6.2790000   3.2670000  -9.7780000
   7.1230000   3.6680000  -8.5880000   6.3560000   3.4180000  -8.9210000
  -8.3610000   1.8790000   6.5530000  -9.2820000   1.6590000   6.4130000
  -8.2800000   1.9860000   7.5000000  -8.4690000   1.8640000   6.6560000
   6.5800000  -6.1690000  -6.7430000   6.7120000  -6.3130000  -5.8060000
   5.7120000  -5.7710000  -6.8030000   6.4860000  -6.1370000  -6.6300000
   3.0200000   8.8930000  -0.9900000   3.6060000   9.6300000  -1.1650000
   2.2380000   9.0790000  -1.5090000   2.9950000   9.0110000  -1.0790000
  -6.5390000  -7.4570000   5.5480000  -6.3320000  -6.5580000   5.8050000
  -6.8960000  -7.8580000   6.3410000  -6.5580000  -7.3930000   5.6820000
  -5.2310000  -6.6650000  -3.7520000  -5.9890000  -6.6780000  -3.1670000
  -4.6990000  -7.4090000  -3.4710000  -5.2610000  -6.7630000  -3.6410000
   1.8090000  -2.9670000   6.5470000   2.3950000  -2.6540000   7.2360000
   1.0830000  -2.3420000   6.5470000   1.7910000  -2.8480000   6.6350000
  -3.4570000   7.1990000   0.6960000  -3.7180000   6.8240000   1.5370000
  -2.7270000   6.6540000   0.4070000  -3.3970000   7.0810000   0.7660000
  -5.2190000   5.3920000  -0.5890000  -5.9430000   5.6950000  -1.1370000
  -4.6250000   6.1420000  -0.5410000  -5.2360000   5.5270000  -0.6530000
  -8.6700000  -4.4540000   9.6010000  -8.8690000  -4.3730000   8.6690000
  -9.4650000  -4.1510000  10.0420000  -8.7980000  -4.4060000   9.5380000
  -5.7460000  -0.8440000  -9.2510000  -6.3490000  -0.1070000  -9.3470000
  -5.1170000  -0.5540000  -8.5900000  -5.7430000  -0.7130000  -9.1790000
  -1.3190000   7.6180000  -7.9580000  -0.8600000   6.7960000  -7.7860000
  -0.6210000   8.2580000  -8.0970000  -1.1710000   7.5950000  -7.9540000
  -8.7020000   4.5720000   8.3580000  -9.4650000   5.1400000   8.2410000
  -8.4980000   4.2620000   7.4760000  -8.7750000   4.6050000   8.2300000
  -6.6320000   5.8670000   9.6950000  -6.1480000   6.4280000   9.0880000
  -7.0740000   5.2310000   9.1340000  -6.6260000   5.8580000   9.5460000
  -3.0050000   7.6030000   8.4930000  -2.4310000   7.5160000   9.2540000
  -3.0470000   8.5450000   8.3310000  -2.9370000   7.7120000   8.5690000
   6.8300000   1.9360000   1.3300000   7.2700000   2.4430000   2.0130000
   6.1580000   1.4390000   1.7960000   6.8010000   1.9370000   1.4770000
   8.0450000   3.7040000   3.5580000   7.3310000   4.3090000   3.3590000
   8.7610000   4.2670000   3.8550000   8.0460000   3.8530000   3.5710000
  -2.6500000   1.4570000   8.3940000  -2.8070000   0.5130000   8.3580000
  -2.7390000   1.7490000   7.4870000  -2.6820000   1.3730000   8.2730000
   1.5570000   4.7650000  -7.5040000   1.8610000   3.8720000  -7.3480000
   2.0840000   5.3050000  -6.9150000   1.6630000   4.7200000  -7.4090000
   4.1800000  -4.7470000  -6.9280000   4.2840000  -4.4040000  -6.0410000
   4.0500000  -3.9710000  -7.4730000   4.1770000  -4.6040000  -6.8840000
   6.8220000  -3.8990000   0.3990000   7.7340000  -3.8880000   0.6920000
   6.8220000  -4.4840000  -0.3590000   6.9390000  -3.9730000   0.3400000
  -5.6240000   7.3540000   7.4080000  -5.8770000   8.2580000   7.5990000
  -4.7190000   7.2890000   7.7110000  -5.5400000   7.4620000   7.4710000
  -3.5910000  -7.5730000  -8.9410000  -3.2490000  -7.5640000  -8.0470000
  -4.0760000  -6.7510000  -9.0190000  -3.6100000  -7.4660000  -8.8370000
  -8.4230000  -7.6570000   0.9630000  -7.5880000  -7.2030000   0.8390000
  -9.0110000  -7.2580000   0.3230000  -8.3910000  -7.5480000   0.8660000
  -7.3230000  -8.5250000   7.9750000  -8.1570000  -8.9510000   8.1760000
  -7.3560000  -7.6980000   8.4550000  -7.4340000  -8.4740000   8.0620000
   7.6740000  -5.4440000   8.0530000   6.7750000  -5.7730000   8.0480000
   7.9990000  -5.6210000   7.1710000   7.6000000  -5.5090000   7.9400000
   7.6900000   5.6780000  -5.9510000   7.8110000   6.5530000  -6.3190000
   7.8990000   5.0840000  -6.6720000   7.7320000   5.7140000  -6.0910000
   6.1080000  -8.9240000  -7.0730000   6.2360000  -8.0080000  -7.3250000
   5.1590000  -9.0190000  -6.9880000   6.0030000  -8.8190000  -7.0940000
  -7.9130000   9.1600000  -4.7680000  -8.6950000   9.0290000  -5.3060000
  -7.9430000  10.0850000  -4.5240000  -8.0170000   9.2620000  -4.8060000
   2.1380000   4.9620000   7.1830000   2.7200000   4.7980000   7.9240000
   1.5450000   5.6480000   7.4910000   2.1360000   5.0290000   7.3170000
   9.2830000  -7.5860000  -9.0720000   9.1070000  -6.7440000  -9.4930000
   8.4740000  -8.0850000  -9.1860000   9.1570000  -7.5410000  -9.1400000
  11.8520000  -1.6570000  -1.6940000  11.8660000  -1.9700000  -0.7890000
  11.8030000  -0.7040000  -1.6170000  11.8480000  -1.5750000  -1.5680000
   1.2450000  -3.7220000  -7.8110000   0.6190000  -4.4450000  -7.7870000
   1.4630000  -3.5620000  -6.8930000   1.1930000  -3.7930000  -7.6910000
  -2.0170000  -2.0730000   4.3090000  -2.8620000  -2.3930000   4.6260000
  -1.5440000  -2.8640000   4.0500000  -2.0650000  -2.2150000   4.3170000
  -5.0900000   3.1130000   8.6430000  -4.2790000   2.6250000   8.5010000
  -5.3590000   3.3900000   7.7670000  -5.0210000   3.0860000   8.5120000
  -6.1820000   7.6850000  -6.2340000  -6.7640000   8.1830000  -5.6610000
  -5.9530000   8.2960000  -6.9340000  -6.2270000   7.8270000  -6.2500000
   7.7110000  -6.2060000   5.4840000   6.8450000  -6.3710000   5.1130000
   8.2930000  -6.7980000   5.0060000   7.6750000  -6.3030000   5.3750000
   7.4170000  -0.7560000  -7.8100000   6.9600000  -0.9970000  -7.0040000
   8.3430000  -0.8960000  -7.6110000   7.4770000  -0.8050000  -7.6810000
  -2.8280000   2.1530000   5.6710000  -1.9480000   1.7800000   5.6190000
  -3.3660000   1.5720000   5.1340000  -2.7840000   2.0310000   5.5960000
   6.1610000   5.8640000   4.0280000   5.8100000   5.7610000   4.9130000
   6.3090000   6.8060000   3.9380000   6.1350000   5.9710000   4.1300000
   8.2980000   7.6310000   5.9070000   8.4960000   7.2360000   6.7570000
   7.6270000   8.2860000   6.0980000   8.2370000   7.6640000   6.0400000
   5.5420000  -5.0390000  -2.2220000   6.2380000  -5.4250000  -2.7550000
   4.9320000  -5.7610000  -2.0670000   5.5530000  -5.1810000  -2.2710000
   3.6160000   0.4100000   5.3200000   3.0590000   0.0160000   4.6480000
   3.0400000   1.0200000   5.7800000   3.4710000   0.4380000   5.2930000
   7.5300000  -0.3290000   8.5140000   6.7070000   0.0110000   8.1650000
   7.3860000  -0.3850000   9.4590000   7.4070000  -0.2930000   8.5900000
   1.4430000  -3.6030000  -5.1470000   0.6200000  -3.3200000  -4.7510000
   2.1210000  -3.2180000  -4.5920000   1.4250000  -3.5180000  -5.0250000
  -5.5450000  -0.0120000   2.9460000  -5.9230000  -0.1390000   3.8160000
  -6.1080000  -0.5230000   2.3640000  -5.6650000  -0.0930000   2.9830000
  -8.5550000   3.0640000  -0.7780000  -8.1610000   2.9940000  -1.6480000
  -7.9430000   2.6090000  -0.2010000  -8.4260000   2.9970000  -0.8160000
   6.1660000  -1.2560000  -5.4060000   6.1230000  -0.6370000  -4.6760000
   5.8000000  -2.0670000  -5.0540000   6.1140000  -1.2800000  -5.2670000
  -5.3980000  -5.5390000   9.0360000  -5.5500000  -5.2590000   8.1340000
  -5.6340000  -4.7790000   9.5670000  -5.4470000  -5.4070000   8.9890000
   2.1020000   8.5870000   4.1910000   1.5530000   8.5180000   3.4110000
   2.4660000   7.7100000   4.3070000   2.0790000   8.4660000   4.1060000
  -3.4640000  -1.4180000   8.1420000  -3.5790000  -1.7020000   7.2350000
  -4.3560000  -1.3150000   8.4750000  -3.5930000  -1.4410000   8.0680000
  -4.4190000  -3.0920000   2.9880000  -5.0090000  -3.8300000   2.8360000
  -3.8070000  -3.1190000   2.2530000  -4.4160000  -3.1890000   2.8740000
  -3.0340000   3.1010000   1.0200000  -3.0750000   2.1460000   0.9830000
  -3.4890000   3.3290000   1.8300000  -3.0980000   3.0080000   1.1190000
   4.9310000  -0.2460000   7.7020000   4.2400000  -0.8860000   7.8700000
   4.7230000   0.1100000   6.8390000   4.8160000  -0.2830000   7.6130000
  -9.4510000  -1.1440000  -5.1610000  -8.7860000  -0.5440000  -4.8230000
 -10.2840000  -0.7100000  -4.9720000  -9.4720000  -1.0120000  -5.0930000
  -7.1180000   3.3010000  -2.9590000  -6.4390000   3.0210000  -2.3450000
  -7.0210000   4.2510000  -3.0080000  -7.0190000   3.3870000  -2.8860000
  -1.7040000   2.0370000  -7.8720000  -2.0870000   1.7280000  -8.6930000
  -1.4650000   2.9480000  -8.0470000  -1.7220000   2.1140000  -7.9990000
  -7.4480000  -6.5080000  -2.1940000  -7.6860000  -7.3270000  -2.6280000
  -8.2090000  -5.9410000  -2.3210000  -7.5760000  -6.5400000  -2.2660000
  -2.8770000  -7.6930000  -6.1900000  -2.6320000  -8.5690000  -5.8890000
  -3.0920000  -7.2160000  -5.3890000  -2.8730000  -7.7440000  -6.0490000
   2.3550000  -5.9440000  -3.6520000   2.0610000  -5.2290000  -4.2160000
   2.0840000  -5.6830000  -2.7720000   2.2830000  -5.8190000  -3.6120000
   0.8090000   5.7120000   1.4300000   0.7450000   5.1920000   2.2320000
   1.3540000   6.4610000   1.6730000   0.8700000   5.7410000   1.5640000
   6.3080000   4.6080000  -1.9510000   5.3930000   4.6180000  -2.2340000
   6.4300000   3.7400000  -1.5660000   6.2060000   4.4980000  -1.9380000
  -6.0390000  -3.4280000  -8.1560000  -6.9640000  -3.6720000  -8.1180000
  -6.0430000  -2.5080000  -8.4210000  -6.1570000  -3.3410000  -8.1850000
  -4.0700000   0.9250000  -4.8670000  -3.2470000   1.4110000  -4.9050000
  -4.0190000   0.4300000  -4.0500000  -3.9580000   0.9240000  -4.7680000
  -7.3790000   8.8000000  -0.7910000  -7.9210000   9.2230000  -0.1240000
  -6.4810000   8.9960000  -0.5290000  -7.3350000   8.8800000  -0.6720000
   5.2680000  -2.5720000  -8.7010000   5.7460000  -2.9250000  -9.4500000
   5.7700000  -1.7990000  -8.4380000   5.3930000  -2.5170000  -8.7630000
  -5.8380000   2.8650000   6.1290000  -5.8770000   3.1820000   5.2270000
  -6.7110000   2.5060000   6.2940000  -5.9560000   2.8590000   6.0350000
  -1.9300000   4.6050000   4.7040000  -2.7130000   5.0110000   4.3350000
  -2.2180000   3.7340000   4.9770000  -2.0670000   4.5450000   4.6920000
  -8.1920000   6.6170000   1.4470000  -7.5370000   6.9780000   0.8500000
  -8.8710000   6.2620000   0.8720000  -8.1950000   6.6180000   1.2970000
   7.1200000 -11.4920000   0.6980000   7.2660000 -11.0860000   1.5530000
   6.1750000 -11.4240000   0.5590000   7.0180000 -11.4320000   0.7900000
  -2.9040000   0.5620000   3.1830000  -2.5790000  -0.2410000   3.5900000
  -3.7730000   0.3300000   2.8570000  -2.9740000   0.4300000   3.1930000
  -7.2880000   1.4960000   9.1520000  -6.4860000   2.0060000   9.0420000
  -7.7380000   1.9140000   9.8860000  -7.2430000   1.6150000   9.2320000
  -2.1670000  -2.6100000  -7.8470000  -2.6480000  -3.4270000  -7.9780000
  -1.7330000  -2.4510000  -8.6850000  -2.1730000  -2.6950000  -7.9710000
  -8.2030000   2.4270000  -7.3890000  -7.4360000   2.1040000  -6.9140000
  -8.9450000   2.1880000  -6.8340000  -8.2010000   2.3550000  -7.2570000
   7.8960000   9.4160000   0.4800000   7.7490000   8.4730000   0.5610000
   8.5500000   9.6140000   1.1510000   7.9610000   9.3200000   0.5760000
   9.2290000   5.6940000  -0.7340000   8.3850000   6.1070000  -0.5500000
   9.0970000   4.7720000  -0.5160000   9.1040000   5.6290000  -0.6830000
  -8.8650000  -3.8170000   1.3070000  -8.0670000  -4.1670000   0.9120000
  -8.8860000  -4.1970000   2.1850000  -8.7660000  -3.9120000   1.3690000
   5.0660000   0.4790000  -3.4830000   5.7400000   0.8910000  -2.9430000
   4.2560000   0.9250000  -3.2370000   5.0490000   0.5890000  -3.3830000
  -6.7810000   0.9700000   0.0200000  -5.8230000   0.9540000   0.0010000
  -7.0260000   0.1560000   0.4600000  -6.6890000   0.8640000   0.0740000
   3.5230000  -5.0200000   2.5590000   3.0690000  -4.5780000   1.8410000
   2.9810000  -4.8460000   3.3280000   3.3960000  -4.9410000   2.5650000
   8.6880000  -0.0920000   1.5030000   8.2990000  -0.5660000   2.2390000
   8.1530000   0.6970000   1.4170000   8.5700000  -0.0520000   1.5860000
   0.5970000   4.3330000   3.8680000   0.9900000   5.1540000   4.1640000
  -0.3160000   4.3880000   4.1500000   0.5310000   4.4450000   3.9420000
   2.0860000  -6.7990000  -6.8750000   1.3270000  -6.5510000  -7.4030000
   2.6410000  -6.0190000  -6.8740000   2.0600000  -6.6670000  -6.9420000
  -5.3790000  -3.5070000  -5.1580000  -5.4690000  -3.7770000  -6.0710000
  -6.2770000  -3.3500000  -4.8650000  -5.5060000  -3.5200000  -5.2370000
   4.2080000  -7.6150000  -2.3620000   3.5460000  -7.2100000  -2.9220000
   4.9030000  -7.8790000  -2.9650000   4.2120000  -7.5960000  -2.5110000
   5.8210000  -2.3830000   3.0170000   5.5560000  -3.0350000   3.6670000
   6.0400000  -2.8970000   2.2390000   5.8150000  -2.5320000   3.0010000
  -1.7770000  -5.7310000   6.4820000  -0.8550000  -5.6540000   6.7260000
  -2.2290000  -5.1130000   7.0570000  -1.7170000  -5.6420000   6.5860000
  -4.7870000  -8.7210000  -0.5990000  -4.6150000  -7.7990000  -0.4000000
  -4.2210000  -9.2040000   0.0020000  -4.6920000  -8.6650000  -0.4970000
  -0.9830000   4.6170000  -8.4750000  -0.1390000   4.5790000  -8.0240000
  -0.7600000   4.8220000  -9.3830000  -0.8460000   4.6380000  -8.5330000
   0.7700000   9.2760000  -2.4080000   0.5850000   8.4490000  -2.8540000
   0.4580000   9.9490000  -3.0130000   0.7060000   9.2560000  -2.5430000
   6.8740000  -8.8550000   9.2170000   6.3330000  -9.3700000   9.8150000
   6.4100000  -8.0220000   9.1300000   6.7460000  -8.8140000   9.2830000
   2.3580000   8.5110000  -9.3180000   2.5160000   9.3500000  -9.7510000
   2.6200000   8.6580000  -8.4090000   2.4120000   8.6370000  -9.2570000
   4.4680000   7.2880000   0.7920000   3.9240000   7.8880000   0.2810000
   4.0770000   6.4270000   0.6460000   4.3490000   7.2550000   0.7080000
   8.2430000  -1.3030000   4.4150000   7.3470000  -1.6280000   4.3280000
   8.1430000  -0.4080000   4.7400000   8.1150000  -1.2300000   4.4460000
  -1.4400000   9.6560000  -0.2350000  -1.4740000   8.9690000   0.4300000
  -0.9640000   9.2610000  -0.9650000  -1.3840000   9.5180000  -0.2430000
   0.4390000   0.3840000  -7.5470000   1.1690000   1.0040000  -7.5580000
  -0.3430000   0.9350000  -7.5780000   0.4320000   0.5340000  -7.5530000
   1.6060000   1.8890000   3.2810000   1.3300000   2.7130000   3.6830000
   2.5570000   1.8760000   3.3900000   1.6930000   1.9930000   3.3460000
  -2.9060000  -5.4980000  -4.4480000  -3.0540000  -4.5560000  -4.5260000
  -3.6990000  -5.8310000  -4.0240000  -3.0260000  -5.4200000  -4.4040000
   0.9620000   9.1120000   1.5300000   1.7520000   9.6500000   1.4760000
   0.3620000   9.5040000   0.8960000   0.9860000   9.2310000   1.4420000
   0.7450000  -5.1540000   7.9710000   0.2790000  -4.5560000   8.5550000
   1.3400000  -4.5900000   7.4760000   0.7610000  -5.0060000   7.9820000
  -3.6500000  -5.0090000  -7.8530000  -4.5670000  -5.2240000  -7.6870000
  -3.1750000  -5.3980000  -7.1180000  -3.7070000  -5.0870000  -7.7380000
  -7.0080000  -0.2630000   5.4180000  -7.6870000   0.3760000   5.6380000
  -7.4170000  -1.1120000   5.5810000  -7.1490000  -0.2900000   5.4670000
   3.9520000   7.7420000  -3.6180000   3.5840000   8.3230000  -2.9530000
   4.8430000   8.0650000  -3.7520000   4.0190000   7.8580000  -3.5500000
  -8.8610000  -7.3540000   4.0000000  -7.9980000  -7.3930000   4.4140000
  -8.6740000  -7.2040000   3.0730000  -8.7270000  -7.3400000   3.9340000
  -9.4010000  -2.1830000   7.9870000 -10.0010000  -1.4500000   8.1280000
  -8.8550000  -2.2000000   8.7730000  -9.4080000  -2.0910000   8.1060000
  -8.0450000  -3.2820000  -3.9700000  -7.6460000  -2.6970000  -3.3260000
  -8.5100000  -2.6970000  -4.5690000  -8.0530000  -3.1320000  -3.9640000
   2.2560000  -7.2660000   8.0670000   2.2530000  -7.5560000   7.1550000
   1.5840000  -6.5860000   8.1040000   2.1690000  -7.2160000   7.9550000
  -6.0860000  -8.6040000  -7.9250000  -6.0840000  -7.8620000  -7.3210000
  -5.5810000  -8.3000000  -8.6790000  -6.0210000  -8.4700000  -7.9440000
  -5.1690000   3.4330000  -7.6410000  -5.0830000   3.3820000  -8.5930000
  -5.7230000   4.2010000  -7.4920000  -5.2290000   3.5250000  -7.7440000
   1.9660000   2.1760000   6.4650000   1.1480000   2.0200000   5.9940000
   2.0140000   3.1280000   6.5540000   1.8680000   2.2780000   6.4160000
   6.3160000  -3.1280000   7.6960000   7.0290000  -3.7600000   7.7910000
   6.7560000  -2.2910000   7.5500000   6.4630000  -3.1020000   7.6890000
  -7.6560000  -1.3460000   1.2180000  -8.4350000  -0.8400000   1.4490000
  -7.9170000  -2.2590000   1.3410000  -7.7880000  -1.3980000   1.2630000
   7.7890000   8.1490000   3.2650000   8.0710000   8.0530000   4.1750000
   7.0080000   8.7000000   3.3140000   7.7250000   8.2070000   3.3880000
  -8.9290000  -6.1060000  -6.4710000  -8.9860000  -6.3590000  -7.3920000
  -9.4770000  -5.3230000  -6.4030000  -9.0060000  -6.0370000  -6.5800000
  -4.4570000  -2.0480000   5.5080000  -4.5480000  -2.1680000   4.5630000
  -5.1810000  -1.4700000   5.7460000  -4.5610000  -1.9890000   5.4170000
  -3.3750000  -8.5330000  -3.0400000  -3.7800000  -8.8640000  -2.2380000
  -3.2680000  -9.3070000  -3.5920000  -3.4130000  -8.6740000  -3.0080000
   7.7100000   6.9270000  -3.3000000   7.7800000   6.2980000  -2.5830000
   7.7760000   6.3950000  -4.0930000   7.7270000   6.7790000  -3.3100000
  -2.8320000  -2.4860000  -5.1540000  -2.4590000  -2.5510000  -6.0330000
  -3.7370000  -2.7820000  -5.2550000  -2.9000000  -2.5330000  -5.2790000
  -3.1330000   4.6710000  -6.7200000  -3.8650000   4.1820000  -7.0960000
  -2.4730000   4.6840000  -7.4120000  -3.1430000   4.6100000  -6.8560000
  -8.1870000   8.0160000   3.8510000  -8.4810000   7.7430000   2.9810000
  -8.4960000   8.9180000   3.9350000  -8.2650000   8.0960000   3.7500000
  -5.8160000  -4.9210000   6.4220000  -5.0240000  -4.8880000   5.8850000
  -6.1750000  -4.0350000   6.3740000  -5.7610000  -4.8040000   6.3470000
   0.3580000  -1.9180000  -9.5300000   0.3390000  -1.2680000  -8.8280000
   0.7130000  -2.7070000  -9.1180000   0.4010000  -1.9350000  -9.3880000
   5.3410000  -6.6680000   7.8910000   5.4020000  -7.0160000   7.0010000
   4.4010000  -6.6200000   8.0650000   5.2280000  -6.7070000   7.7990000
  -4.2720000   5.3800000   3.2490000  -4.8430000   6.0670000   3.5960000
  -4.7240000   4.5640000   3.4630000  -4.4040000   5.3640000   3.3210000
   2.3200000   6.9610000  -5.6600000   1.6350000   6.8890000  -4.9950000
   3.1180000   7.1390000  -5.1630000   2.3340000   6.9740000  -5.5110000
   0.0310000  -7.4150000  -4.6780000  -0.1940000  -6.6310000  -4.1790000
   0.9300000  -7.2630000  -4.9700000   0.1180000  -7.2950000  -4.6510000
   5.4580000  -7.6950000   0.1920000   6.3290000  -8.0880000   0.2490000
   5.3590000  -7.4640000  -0.7310000   5.5570000  -7.7160000   0.0810000
   2.3660000  -7.4280000   5.3260000   2.1060000  -8.2040000   4.8290000
   3.3220000  -7.4230000   5.2780000   2.4550000  -7.5270000   5.2560000
   5.4830000  -3.8300000  -4.5600000   5.2620000  -4.0800000  -3.6620000
   6.2990000  -4.2960000  -4.7430000   5.5590000  -3.9220000  -4.4680000
   3.3290000   5.9330000  -9.4130000   2.9290000   6.8010000  -9.3630000
   2.8530000   5.4120000  -8.7660000   3.2170000   5.9780000  -9.3240000
  -2.0830000  -8.2600000   7.7580000  -2.6370000  -7.9480000   8.4740000
  -2.0220000  -7.5130000   7.1610000  -2.1470000  -8.1240000   7.7730000
   2.5860000   5.9250000   4.6480000   2.3830000   5.6150000   5.5300000
   3.1000000   5.2170000   4.2580000   2.6260000   5.7940000   4.7110000
   8.1740000  -3.8060000  -6.7240000   7.3510000  -4.2930000  -6.7720000
   7.9220000  -2.9420000  -6.3960000   8.0370000  -3.7580000  -6.6880000
   5.2310000   3.5270000   7.2950000   4.5910000   2.9940000   7.7670000
   5.1930000   3.2040000   6.3940000   5.1440000   3.4170000   7.2400000
  -1.0020000   5.8950000   7.4300000  -1.3890000   5.5300000   6.6340000
  -1.6500000   6.5240000   7.7450000  -1.1350000   5.9280000   7.3690000
  -8.6420000   5.2490000   4.7990000  -9.0250000   6.0920000   5.0430000
  -7.8180000   5.4750000   4.3680000  -8.5870000   5.3860000   4.7750000
  -6.7390000  -5.1250000   0.2210000  -6.8330000  -5.5930000  -0.6090000
  -5.9160000  -5.4480000   0.5860000  -6.6460000  -5.2260000   0.1620000
   7.8980000   1.3640000   5.1120000   7.0070000   1.5800000   5.3900000
   8.1750000   2.1170000   4.5900000   7.8190000   1.4880000   5.0810000
   6.9660000   3.3860000  -4.4560000   6.9880000   3.5020000  -3.5060000
   7.1390000   4.2590000  -4.8070000   6.9910000   3.5130000  -4.3790000
   6.3410000   9.3260000  -4.1490000   6.0770000   9.2910000  -5.0680000
   6.9630000   8.6050000  -4.0500000   6.3870000   9.2290000  -4.2540000
   3.5150000   9.3220000  -6.6380000   2.9990000   8.6370000  -6.2120000
   3.0320000  10.1290000  -6.4640000   3.3870000   9.3370000  -6.5610000
  -4.5760000  -5.8670000   1.4770000  -4.1240000  -6.4460000   2.0910000
  -4.0130000  -5.8520000   0.7040000  -4.4470000  -5.9390000   1.4570000
  -7.9940000  -2.7680000   5.7460000  -8.5610000  -2.4060000   5.0640000
  -8.4900000  -2.6510000   6.5560000  -8.1300000  -2.7070000   5.7620000
   3.2520000  10.8650000   1.6630000   4.0270000  10.7090000   1.1240000
   3.2210000  11.8160000   1.7690000   3.3470000  10.9660000   1.6080000
   5.0150000   6.6970000   7.1990000   5.2850000   5.7930000   7.3590000
   4.0630000   6.6840000   7.3000000   4.9280000   6.5800000   7.2330000
   5.3250000   2.4030000   4.8960000   4.7150000   1.6670000   4.9520000
   4.8930000   3.0270000   4.3130000   5.1920000   2.3880000   4.8290000
  -5.5770000   2.9910000   3.3210000  -6.0380000   3.3350000   2.5560000
  -5.4960000   2.0530000   3.1490000  -5.6270000   2.9150000   3.2010000
  -7.3820000   0.6320000  -4.4940000  -6.4250000   0.6640000  -4.4670000
  -7.6520000   1.5490000  -4.4560000  -7.2930000   0.7530000  -4.4860000
  -2.5410000  -3.9090000   8.4490000  -3.3060000  -4.3060000   8.8670000
  -2.7950000  -2.9980000   8.3010000  -2.6720000  -3.8430000   8.4840000
  -6.0230000  -6.0780000  -6.5230000  -5.7140000  -6.0130000  -5.6190000
  -6.9400000  -6.3370000  -6.4440000  -6.1010000  -6.1030000  -6.3970000
   3.2870000  -1.8170000  -4.1390000   3.9070000  -1.3730000  -4.7180000
   2.4770000  -1.3130000  -4.2240000   3.2630000  -1.6950000  -4.2240000
 -10.0940000   4.2350000  -8.1780000  -9.4650000   3.7120000  -7.6790000
  -9.6000000   4.5410000  -8.9390000  -9.9500000   4.2070000  -8.2110000
  -4.4210000   6.3190000  -4.9070000  -5.1210000   6.7170000  -5.4240000
  -3.9890000   5.7160000  -5.5130000  -4.4560000   6.2930000  -5.0510000
   4.1800000   4.2620000   2.9150000   4.0070000   4.1850000   1.9770000
   4.9630000   4.8090000   2.9700000   4.2580000   4.3220000   2.8020000
   6.0260000   9.2130000   6.5250000   6.4350000   9.3850000   7.3730000
   5.7570000   8.2960000   6.5700000   6.0440000   9.1180000   6.6390000
   5.0400000  -6.1250000   4.7930000   4.7530000  -5.2990000   5.1840000
   4.8170000  -6.0410000   3.8660000   4.9740000  -6.0080000   4.7250000
   8.6930000   8.5050000  -6.4770000   9.2800000   8.3280000  -7.2120000
   8.1020000   9.1850000  -6.8010000   8.6920000   8.5690000  -6.6130000
  -8.5160000   8.0010000  -8.7200000  -7.9580000   7.2420000  -8.5480000
  -7.9480000   8.7550000  -8.5640000  -8.3710000   8.0000000  -8.6780000
   8.5330000   6.8600000   8.5180000   7.7610000   6.8910000   9.0820000
   9.1500000   7.4700000   8.9240000   8.5130000   6.9420000   8.6430000
   9.0550000  -4.7890000  -2.7210000   9.6370000  -4.3040000  -3.3070000
   8.4890000  -4.1190000  -2.3380000   9.0570000  -4.6410000  -2.7470000
   3.4340000   1.9870000   8.5870000   2.6230000   2.0250000   8.0800000
   3.7980000   1.1240000   8.3920000   3.3770000   1.8820000   8.4970000
  -9.6210000   0.6200000  -2.2780000  -9.0250000   0.8760000  -2.9820000
  -9.3190000   1.1150000  -1.5160000  -9.5070000   0.7160000  -2.2710000
  -6.9400000   4.1270000   1.5270000  -6.6810000   4.8200000   0.9190000
  -7.8120000   4.3860000   1.8260000  -7.0190000   4.2490000   1.4870000
   6.7480000   1.7170000  -1.4920000   7.6010000   1.3760000  -1.7620000
   6.7700000   1.6880000  -0.5360000   6.8600000   1.6690000  -1.4050000
  -0.3220000  -1.3720000   6.4130000  -1.0760000  -1.7020000   5.9240000
  -0.5230000  -1.5700000   7.3270000  -0.4440000  -1.4400000   6.4670000
   3.2280000  -2.0500000   8.4820000   2.4440000  -2.0880000   9.0300000
   3.8650000  -2.6000000   8.9360000   3.2090000  -2.1240000   8.6100000
   8.8240000  -8.2580000  -1.9840000   8.2280000  -8.6080000  -1.3220000
   9.5420000  -8.8900000  -2.0190000   8.8400000  -8.3830000  -1.9040000
   4.8940000   2.3880000  -6.2770000   5.2900000   2.7290000  -5.4750000
   5.3850000   2.8070000  -6.9840000   5.0070000   2.4850000  -6.2650000
   4.6230000  -3.5260000   5.6850000   5.3160000  -3.3320000   6.3170000
   3.9870000  -2.8200000   5.8030000   4.6300000  -3.4120000   5.7810000
   5.0880000   8.7440000   3.1600000   4.6150000   9.5760000   3.1530000
   4.5570000   8.1630000   2.6160000   4.9590000   8.7760000   3.0900000
  -2.8000000  -6.5860000 -14.8560000  -2.5720000  -6.6130000 -13.9270000
  -3.4290000  -7.2980000 -14.9690000  -2.8520000  -6.6810000 -14.7510000
  -5.4010000   7.6010000 -14.5960000  -6.3560000   7.5330000 -14.6280000
  -5.2120000   7.9080000 -13.7100000  -5.4990000   7.6320000 -14.4870000
  -4.8840000  -8.3000000 -15.3500000  -5.4440000  -7.8520000 -14.7160000
  -5.0310000  -9.2310000 -15.1830000  -4.9740000  -8.3620000 -15.2480000
  -0.6700000  -4.8490000 -15.4970000  -1.2730000  -5.4900000 -15.1220000
   0.1190000  -4.9180000 -14.9590000  -0.6460000  -4.9390000 -15.3800000
  -0.1320000  -8.4130000  -9.2190000   0.7600000  -8.6420000  -9.4830000
  -0.6540000  -8.5340000 -10.0120000  -0.0840000  -8.4570000  -9.3540000
   1.7530000  -5.0230000 -14.2290000   1.9310000  -5.9060000 -13.9030000
   2.0720000  -4.4440000 -13.5370000   1.8170000  -5.0620000 -14.0980000
  -0.3570000   1.2120000 -13.4570000  -0.4850000   0.3470000 -13.0680000
   0.0860000   1.0370000 -14.2880000  -0.3170000   1.0790000 -13.5140000
  -9.2340000  -4.4580000 -14.9000000  -8.9560000  -3.8890000 -14.1820000
  -9.8360000  -5.0810000 -14.4930000  -9.2750000  -4.4650000 -14.7560000
  -8.3610000   1.8790000 -12.3070000  -9.2820000   1.6590000 -12.4470000
  -8.2800000   1.9860000 -11.3600000  -8.4690000   1.8640000 -12.2040000
  -6.5390000  -7.4570000 -13.3120000  -6.3320000  -6.5580000 -13.0550000
  -6.8960000  -7.8580000 -12.5190000  -6.5580000  -7.3930000 -13.1780000
   1.8090000  -2.9670000 -12.3130000   2.3950000  -2.6540000 -11.6240000
   1.0830000  -2.3420000 -12.3130000   1.7910000  -2.8480000 -12.2250000
  -3.4570000   7.1990000 -18.1640000  -3.7180000   6.8240000 -17.3230000
  -2.7270000   6.6540000 -18.4530000  -3.3970000   7.0810000 -18.0940000
  -8.6700000  -4.4540000  -9.2590000  -8.8690000  -4.3730000 -10.1910000
  -9.4650000  -4.1510000  -8.8180000  -8.7980000  -4.4060000  -9.3220000
  -2.5960000  -1.8910000 -17.8360000  -1.7150000  -1.5990000 -17.6040000
  -2.5100000  -2.2250000 -18.7290000  -2.4720000  -1.8960000 -17.9210000
  -8.7020000   4.5720000 -10.5020000  -9.4650000   5.1400000 -10.6190000
  -8.4980000   4.2620000 -11.3840000  -8.7750000   4.6050000 -10.6300000
  -6.6320000   5.8670000  -9.1650000  -6.1480000   6.4280000  -9.7720000
  -7.0740000   5.2310000  -9.7260000  -6.6260000   5.8580000  -9.3140000
  -3.0050000   7.6030000 -10.3670000  -2.4310000   7.5160000  -9.6060000
  -3.0470000   8.5450000 -10.5290000  -2.9370000   7.7120000 -10.2910000
   1.7010000  -6.0720000 -19.6520000   0.7490000  -6.1360000 -19.5810000
   2.0290000  -6.8000000 -19.1240000   1.6210000  -6.1730000 -19.5750000
   6.8300000   1.9360000 -17.5300000   7.2700000   2.4430000 -16.8470000
   6.1580000   1.4390000 -17.0640000   6.8010000   1.9370000 -17.3830000
   8.0450000   3.7040000 -15.3020000   7.3310000   4.3090000 -15.5010000
   8.7610000   4.2670000 -15.0050000   8.0460000   3.8530000 -15.2890000
  -2.6500000   1.4570000 -10.4660000  -2.8070000   0.5130000 -10.5020000
  -2.7390000   1.7490000 -11.3730000  -2.6820000   1.3730000 -10.5870000
   6.8220000  -3.8990000 -18.4610000   7.7340000  -3.8880000 -18.1680000
   6.8220000  -4.4840000 -19.2190000   6.9390000  -3.9730000 -18.5200000
   4.6670000   0.4380000 -16.6100000   3.7920000   0.1810000 -16.9000000
   5.0190000  -0.3450000 -16.1860000   4.6000000   0.3050000 -16.5930000
  -5.6240000   7.3540000 -11.4520000  -5.8770000   8.2580000 -11.2610000
  -4.7190000   7.2890000 -11.1490000  -5.5400000   7.4620000 -11.3890000
  -8.4230000  -7.6570000 -17.8970000  -7.5880000  -7.2030000 -18.0210000
  -9.0110000  -7.2580000 -18.5370000  -8.3910000  -7.5480000 -17.9940000
  -7.3230000  -8.5250000 -10.8850000  -8.1570000  -8.9510000 -10.6840000
  -7.3560000  -7.6980000 -10.4050000  -7.4340000  -8.4740000 -10.7980000
   7.6740000  -5.4440000 -10.8070000   6.7750000  -5.7730000 -10.8120000
   7.9990000  -5.6210000 -11.6890000   7.6000000  -5.5090000 -10.9200000
   2.1380000   4.9620000 -11.6770000   2.7200000   4.7980000 -10.9360000
   1.5450000   5.6480000 -11.3690000   2.1360000   5.0290000 -11.5430000
  -1.5600000   5.4260000 -18.9380000  -2.0400000   4.6180000 -18.7610000
  -0.8300000   5.4120000 -18.3190000  -1.5280000   5.3210000 -18.8360000
  -2.0170000  -2.0730000 -14.5510000  -2.8620000  -2.3930000 -14.2340000
  -1.5440000  -2.8640000 -14.8100000  -2.0650000  -2.2150000 -14.5430000
  -5.0900000   3.1130000 -10.2170000  -4.2790000   2.6250000 -10.3590000
  -5.3590000   3.3900000 -11.0930000  -5.0210000   3.0860000 -10.3480000
   7.7110000  -6.2060000 -13.3760000   6.8450000  -6.3710000 -13.7470000
   8.2930000  -6.7980000 -13.8540000   7.6750000  -6.3030000 -13.4850000
  -2.8280000   2.1530000 -13.1890000  -1.9480000   1.7800000 -13.2410000
  -3.3660000   1.5720000 -13.7260000  -2.7840000   2.0310000 -13.2640000
   6.1610000   5.8640000 -14.8320000   5.8100000   5.7610000 -13.9470000
   6.3090000   6.8060000 -14.9220000   6.1350000   5.9710000 -14.7300000
   8.2980000   7.6310000 -12.9530000   8.4960000   7.2360000 -12.1030000
   7.6270000   8.2860000 -12.7620000   8.2370000   7.6640000 -12.8200000
   3.6160000   0.4100000 -13.5400000   3.0590000   0.0160000 -14.2120000
   3.0400000   1.0200000 -13.0800000   3.4710000   0.4380000 -13.5670000
   7.5300000  -0.3290000 -10.3460000   6.7070000   0.0110000 -10.6950000
   7.3860000  -0.3850000  -9.4010000   7.4070000  -0.2930000 -10.2700000
  -5.5450000  -0.0120000 -15.9140000  -5.9230000  -0.1390000 -15.0440000
  -6.1080000  -0.5230000 -16.4960000  -5.6650000  -0.0930000 -15.8770000
  -5.3980000  -5.5390000  -9.8240000  -5.5500000  -5.2590000 -10.7260000
  -5.6340000  -4.7790000  -9.2930000  -5.4470000  -5.4070000  -9.8710000
   2.1020000   8.5870000 -14.6690000   1.5530000   8.5180000 -15.4490000
   2.4660000   7.7100000 -14.5530000   2.0790000   8.4660000 -14.7540000
  -3.4640000  -1.4180000 -10.7180000  -3.5790000  -1.7020000 -11.6250000
  -4.3560000  -1.3150000 -10.3850000  -3.5930000  -1.4410000 -10.7920000
  -4.4190000  -3.0920000 -15.8720000  -5.0090000  -3.8300000 -16.0240000
  -3.8070000  -3.1190000 -16.6070000  -4.4160000  -3.1890000 -15.9860000
  -3.0340000   3.1010000 -17.8400000  -3.0750000   2.1460000 -17.8770000
  -3.4890000   3.3290000 -17.0300000  -3.0980000   3.0080000 -17.7410000
   4.9310000  -0.2460000 -11.1580000   4.2400000  -0.8860000 -10.9900000
   4.7230000   0.1100000 -12.0210000   4.8160000  -0.2830000 -11.2470000
   0.8090000   5.7120000 -17.4300000   0.7450000   5.1920000 -16.6280000
   1.3540000   6.4610000 -17.1870000   0.8700000   5.7410000 -17.2960000
  -7.3790000   8.8000000 -19.6510000  -7.9210000   9.2230000 -18.9840000
  -6.4810000   8.9960000 -19.3890000  -7.3350000   8.8800000 -19.5320000
  -5.8380000   2.8650000 -12.7310000  -5.8770000   3.1820000 -13.6330000
  -6.7110000   2.5060000 -12.5660000  -5.9560000   2.8590000 -12.8250000
  -1.9300000   4.6050000 -14.1560000  -2.7130000   5.0110000 -14.5250000
  -2.2180000   3.7340000 -13.8830000  -2.0670000   4.5450000 -14.1680000
  -8.1920000   6.6170000 -17.4130000  -7.5370000   6.9780000 -18.0100000
  -8.8710000   6.2620000 -17.9880000  -8.1950000   6.6180000 -17.5630000
   7.1200000 -11.4920000 -18.1620000   7.2660000 -11.0860000 -17.3070000
   6.1750000 -11.4240000 -18.3010000   7.0180000 -11.4320000 -18.0700000
  -2.9040000   0.5620000 -15.6770000  -2.5790000  -0.2410000 -15.2700000
  -3.7730000   0.3300000 -16.0030000  -2.9740000   0.4300000 -15.6670000
  -7.2880000   1.4960000  -9.7080000  -6.4860000   2.0060000  -9.8180000
  -7.7380000   1.9140000  -8.9740000  -7.2430000   1.6150000  -9.6280000
   7.8960000   9.4160000 -18.3800000   7.7490000   8.4730000 -18.2990000
   8.5500000   9.6140000 -17.7090000   7.9610000   9.3200000 -18.2840000
   9.2290000   5.6940000 -19.5940000   8.3850000   6.1070000 -19.4100000
   9.0970000   4.7720000 -19.3760000   9.1040000   5.6290000 -19.5430000
  -8.8650000  -3.8170000 -17.5530000  -8.0670000  -4.1670000 -17.9480000
  -8.8860000  -4.1970000 -16.6750000  -8.7660000  -3.9120000 -17.4910000
  -6.7810000   0.9700000 -18.8400000  -5.8230000   0.9540000 -18.8590000
  -7.0260000   0.1560000 -18.4000000  -6.6890000   0.8640000 -18.7860000
   3.5230000  -5.0200000 -16.3010000   3.0690000  -4.5780000 -17.0190000
   2.9810000  -4.8460000 -15.5320000   3.3960000  -4.9410000 -16.2950000
   8.6880000  -0.0920000 -17.3570000   8.2990000  -0.5660000 -16.6210000
   8.1530000   0.6970000 -17.4430000   8.5700000  -0.0520000 -17.2740000
   2.0620000  -3.5440000 -18.4910000   2.6880000  -3.0950000 -19.0580000
   1.9200000  -4.3910000 -18.9150000   2.1240000  -3.5950000 -18.6180000
   0.5970000   4.3330000 -14.9920000   0.9900000   5.1540000 -14.6960000
  -0.3160000   4.3880000 -14.7100000   0.5310000   4.4450000 -14.9180000
   5.8210000  -2.3830000 -15.8430000   5.5560000  -3.0350000 -15.1930000
   6.0400000  -2.8970000 -16.6210000   5.8150000  -2.5320000 -15.8590000
  -1.7770000  -5.7310000 -12.3780000  -0.8550000  -5.6540000 -12.1340000
  -2.2290000  -5.1130000 -11.8030000  -1.7170000  -5.6420000 -12.2740000
  -4.7870000  -8.7210000 -19.4590000  -4.6150000  -7.7990000 -19.2600000
  -4.2210000  -9.2040000 -18.8580000  -4.6920000  -8.6650000 -19.3570000
   3.3800000   4.8620000 -18.6070000   3.4780000   5.1090000 -19.5270000
   2.5260000   5.2120000 -18.3550000   3.2830000   4.9380000 -18.6920000
   4.4680000   7.2880000 -18.0680000   3.9240000   7.8880000 -18.5790000
   4.0770000   6.4270000 -18.2140000   4.3490000   7.2550000 -18.1520000
   8.2430000  -1.3030000 -14.4450000   7.3470000  -1.6280000 -14.5320000
   8.1430000  -0.4080000 -14.1200000   8.1150000  -1.2300000 -14.4140000
   0.0710000  -2.2350000 -17.2910000  -0.3780000  -2.9890000 -16.9090000
   0.7930000  -2.6150000 -17.7910000   0.1060000  -2.3800000 -17.3060000
   1.6060000   1.8890000 -15.5790000   1.3300000   2.7130000 -15.1770000
   2.5570000   1.8760000 -15.4700000   1.6930000   1.9930000 -15.5140000
   0.9620000   9.1120000 -17.3300000   1.7520000   9.6500000 -17.3840000
   0.3620000   9.5040000 -17.9640000   0.9860000   9.2310000 -17.4180000
   0.7450000  -5.1540000 -10.8890000   0.2790000  -4.5560000 -10.3050000
   1.3400000  -4.5900000 -11.3840000   0.7610000  -5.0060000 -10.8780000
  -7.0080000  -0.2630000 -13.4420000  -7.6870000   0.3760000 -13.2220000
  -7.4170000  -1.1120000 -13.2790000  -7.1490000  -0.2900000 -13.3930000
  -8.8610000  -7.3540000 -14.8600000  -7.9980000  -7.3930000 -14.4460000
  -8.6740000  -7.2040000 -15.7870000  -8.7270000  -7.3400000 -14.9260000
   2.0570000   0.1790000 -17.4930000   1.7890000   0.8220000 -16.8360000
   1.2580000  -0.0030000 -17.9890000   1.9200000   0.2380000 -17.4730000
  -9.4010000  -2.1830000 -10.8730000 -10.0010000  -1.4500000 -10.7320000
  -8.8550000  -2.2000000 -10.0870000  -9.4080000  -2.0910000 -10.7540000
   2.0340000  -1.4870000 -14.9310000   1.8710000  -1.1780000 -15.8220000
   1.1730000  -1.7510000 -14.6080000   1.9030000  -1.4810000 -15.0030000
   2.2560000  -7.2660000 -10.7930000   2.2530000  -7.5560000 -11.7050000
   1.5840000  -6.5860000 -10.7560000   2.1690000  -7.2160000 -10.9050000
   1.9660000   2.1760000 -12.3950000   1.1480000   2.0200000 -12.8660000
   2.0140000   3.1280000 -12.3060000   1.8680000   2.2780000 -12.4440000
   6.3160000  -3.1280000 -11.1640000   7.0290000  -3.7600000 -11.0690000
   6.7560000  -2.2910000 -11.3100000   6.4630000  -3.1020000 -11.1710000
  -7.6560000  -1.3460000 -17.6420000  -8.4350000  -0.8400000 -17.4110000
  -7.9170000  -2.2590000 -17.5190000  -7.7880000  -1.3980000 -17.5970000
   7.7890000   8.1490000 -15.5950000   8.0710000   8.0530000 -14.6850000
   7.0080000   8.7000000 -15.5460000   7.7250000   8.2070000 -15.4720000
  -4.4570000  -2.0480000 -13.3520000  -4.5480000  -2.1680000 -14.2970000
  -5.1810000  -1.4700000 -13.1140000  -4.5610000  -1.9890000 -13.4430000
  -8.1870000   8.0160000 -15.0090000  -8.4810000   7.7430000 -15.8790000
  -8.4960000   8.9180000 -14.9250000  -8.2650000   8.0960000 -15.1100000
  -5.8160000  -4.9210000 -12.4380000  -5.0240000  -4.8880000 -12.9750000
  -6.1750000  -4.0350000 -12.4860000  -5.7610000  -4.8040000 -12.5130000
   5.3410000  -6.6680000 -10.9690000   5.4020000  -7.0160000 -11.8590000
   4.4010000  -6.6200000 -10.7950000   5.2280000  -6.7070000 -11.0610000
  -4.2720000   5.3800000 -15.6110000  -4.8430000   6.0670000 -15.2640000
  -4.7240000   4.5640000 -15.3970000  -4.4040000   5.3640000 -15.5390000
   5.4580000  -7.6950000 -18.6680000   6.3290000  -8.0880000 -18.6110000
   5.3590000  -7.4640000 -19.5910000   5.5570000  -7.7160000 -18.7790000
   2.3660000  -7.4280000 -13.5340000   2.1060000  -8.2040000 -14.0310000
   3.3220000  -7.4230000 -13.5820000   2.4550000  -7.5270000 -13.6040000
  -0.7140000  -5.2810000 -18.2530000  -1.5650000  -5.7120000 -18.3400000
  -0.6150000  -5.1330000 -17.3120000  -0.8110000  -5.3160000 -18.1440000
  -2.0830000  -8.2600000 -11.1020000  -2.6370000  -7.9480000 -10.3860000
  -2.0220000  -7.5130000 -11.6990000  -2.1470000  -8.1240000 -11.0870000
   2.5860000   5.9250000 -14.2120000   2.3830000   5.6150000 -13.3300000
   3.1000000   5.2170000 -14.6020000   2.6260000   5.7940000 -14.1490000
   5.2310000   3.5270000 -11.5650000   4.5910000   2.9940000 -11.0930000
   5.1930000   3.2040000 -12.4660000   5.1440000   3.4170000 -11.6200000
  -1.0020000   5.8950000 -11.4300000  -1.3890000   5.5300000 -12.2260000
  -1.6500000   6.5240000 -11.1150000  -1.1350000   5.9280000 -11.4910000
  -8.6420000   5.2490000 -14.0610000  -9.0250000   6.0920000 -13.8170000
  -7.8180000   5.4750000 -14.4920000  -8.5870000   5.3860000 -14.0850000
  -6.7390000  -5.1250000 -18.6390000  -6.8330000  -5.5930000 -19.4690000
  -5.9160000  -5.4480000 -18.2740000  -6.6460000  -5.2260000 -18.6980000
   7.8980000   1.3640000 -13.7480000   7.0070000   1.5800000 -13.4700000
   8.1750000   2.1170000 -14.2700000   7.8190000   1.4880000 -13.7790000
  -4.5760000  -5.8670000 -17.3830000  -4.1240000  -6.4460000 -16.7690000
  -4.0130000  -5.8520000 -18.1560000  -4.4470000  -5.9390000 -17.4030000
  -7.9940000  -2.7680000 -13.1140000  -8.5610000  -2.4060000 -13.7960000
  -8.4900000  -2.6510000 -12.3040000  -8.1300000  -2.7070000 -13.0980000
   3.2520000  10.8650000 -17.1970000   4.0270000  10.7090000 -17.7360000
   3.2210000  11.8160000 -17.0910000   3.3470000  10.9660000 -17.2520000
   5.0150000   6.6970000 -11.6610000   5.2850000   5.7930000 -11.5010000
   4.0630000   6.6840000 -11.5600000   4.9280000   6.5800000 -11.6270000
   5.3250000   2.4030000 -13.9640000   4.7150000   1.6670000 -13.9080000
   4.8930000   3.0270000 -14.5470000   5.1920000   2.3880000 -14.0310000
  -5.5770000   2.9910000 -15.5390000  -6.0380000   3.3350000 -16.3040000
  -5.4960000   2.0530000 -15.7110000  -5.6270000   2.9150000 -15.6590000
  -2.5410000  -3.9090000 -10.4110000  -3.3060000  -4.3060000  -9.9930000
  -2.7950000  -2.9980000 -10.5590000  -2.6720000  -3.8430000 -10.3760000
   4.1800000   4.2620000 -15.9450000   4.0070000   4.1850000 -16.8830000
   4.9630000   4.8090000 -15.8900000   4.2580000   4.3220000 -16.0580000
   6.0260000   9.2130000 -12.3350000   6.4350000   9.3850000 -11.4870000
   5.7570000   8.2960000 -12.2900000   6.0440000   9.1180000 -12.2210000
   5.0400000  -6.1250000 -14.0670000   4.7530000  -5.2990000 -13.6760000
   4.8170000  -6.0410000 -14.9940000   4.9740000  -6.0080000 -14.1350000
   8.5330000   6.8600000 -10.3420000   7.7610000   6.8910000  -9.7780000
   9.1500000   7.4700000  -9.9360000   8.5130000   6.9420000 -10.2170000
   3.4340000   1.9870000 -10.2730000   2.6230000   2.0250000 -10.7800000
   3.7980000   1.1240000 -10.4680000   3.3770000   1.8820000 -10.3630000
  -6.9400000   4.1270000 -17.3330000  -6.6810000   4.8200000 -17.9410000
  -7.8120000   4.3860000 -17.0340000  -7.0190000   4.2490000 -17.3730000
  -0.3220000  -1.3720000 -12.4470000  -1.0760000  -1.7020000 -12.9360000
  -0.5230000  -1.5700000 -11.5330000  -0.4440000  -1.4400000 -12.3930000
   3.2280000  -2.0500000 -10.3780000   2.4440000  -2.0880000  -9.8300000
   3.8650000  -2.6000000  -9.9240000   3.2090000  -2.1240000 -10.2500000
   4.6230000  -3.5260000 -13.1750000   5.3160000  -3.3320000 -12.5430000
   3.9870000  -2.8200000 -13.0570000   4.6300000  -3.4120000 -13.0790000
   5.0880000   8.7440000 -15.7000000   4.6150000   9.5760000 -15.7070000
   4.5570000   8.1630000 -16.2440000   4.9590000   8.7760000 -15.7700000
  -0.6360000 -13.8230000  16.2870000  -0.8100000 -13.6620000  17.2150000
  -1.4010000 -14.3090000  15.9810000  -0.7560000 -13.8640000  16.3670000
  -4.0660000 -18.9260000  11.6180000  -4.2190000 -18.4690000  12.4450000
  -3.3530000 -19.5360000  11.8100000  -3.9940000 -18.9450000  11.7480000
   6.0960000 -12.7670000   9.8040000   5.2340000 -12.4390000   9.5480000
   6.0000000 -13.7190000   9.8030000   5.9730000 -12.8470000   9.7710000
  -7.1780000 -12.6700000  16.5810000  -7.1410000 -11.7770000  16.2370000
  -7.9770000 -12.6910000  17.1070000  -7.2760000 -12.5580000  16.6040000
  -2.4670000 -10.8800000  13.2700000  -3.2670000 -11.4070000  13.2800000
  -2.1230000 -10.9830000  12.3830000  -2.5250000 -10.9610000  13.1580000
   1.4410000 -15.8940000  15.7370000   1.0150000 -16.5020000  15.1330000
   0.7780000 -15.2280000  15.9150000   1.3020000 -15.8870000  15.6830000
   8.3120000 -20.9710000  16.8310000   7.5330000 -20.8620000  17.3760000
   8.6560000 -20.0860000  16.7220000   8.2560000 -20.8450000  16.8870000
   2.5190000 -16.7040000  11.2820000   3.2890000 -16.6830000  11.8490000
   2.8380000 -17.0710000  10.4580000   2.6580000 -16.7480000  11.2490000
   8.2550000 -17.0670000  13.0120000   7.8890000 -16.4260000  13.6220000
   7.4900000 -17.4890000  12.6200000   8.1100000 -17.0390000  13.0400000
   6.2370000 -15.4660000  10.0290000   6.2790000 -15.6010000   9.0820000
   7.1230000 -15.2000000  10.2720000   6.3560000 -15.4500000   9.9390000
   3.2300000 -13.3000000  16.6180000   3.4060000 -12.4500000  16.2150000
   2.4710000 -13.6370000  16.1440000   3.1560000 -13.2340000  16.5060000
   3.0200000  -9.9750000  17.8700000   3.6060000  -9.2380000  17.6950000
   2.2380000  -9.7890000  17.3510000   2.9950000  -9.8570000  17.7810000
  -0.5710000 -21.3340000  14.9390000  -1.3960000 -21.3520000  14.4540000
  -0.8220000 -21.5200000  15.8440000  -0.7090000 -21.3600000  14.9930000
  -5.2190000 -13.4760000  18.2710000  -5.9430000 -13.1730000  17.7230000
  -4.6250000 -12.7260000  18.3190000  -5.2360000 -13.3410000  18.2070000
  -5.7460000 -19.7120000   9.6090000  -6.3490000 -18.9750000   9.5130000
  -5.1170000 -19.4220000  10.2700000  -5.7430000 -19.5810000   9.6810000
  -1.3190000 -11.2500000  10.9020000  -0.8600000 -12.0720000  11.0740000
  -0.6210000 -10.6100000  10.7630000  -1.1710000 -11.2730000  10.9060000
   1.5570000 -14.1030000  11.3560000   1.8610000 -14.9950000  11.5120000
   2.0840000 -13.5630000  11.9450000   1.6630000 -14.1480000  11.4510000
   7.6900000 -13.1900000  12.9090000   7.8110000 -12.3150000  12.5410000
   7.8990000 -13.7840000  12.1880000   7.7320000 -13.1540000  12.7690000
  -7.9130000  -9.7080000  14.0920000  -8.6950000  -9.8390000  13.5540000
  -7.9430000  -8.7830000  14.3360000  -8.0170000  -9.6060000  14.0540000
  -1.5600000 -13.4420000  18.7820000  -2.0400000 -14.2500000  18.9590000
  -0.8300000 -13.4560000  19.4010000  -1.5280000 -13.5470000  18.8840000
  11.8520000 -20.5250000  17.1660000  11.8660000 -20.8380000  18.0710000
  11.8030000 -19.5720000  17.2430000  11.8480000 -20.4430000  17.2920000
  -6.1820000 -11.1830000  12.6260000  -6.7640000 -10.6850000  13.1990000
  -5.9530000 -10.5720000  11.9260000  -6.2270000 -11.0410000  12.6100000
   7.4170000 -19.6240000  11.0500000   6.9600000 -19.8650000  11.8560000
   8.3430000 -19.7640000  11.2490000   7.4770000 -19.6730000  11.1790000
   3.4620000 -17.3700000  17.2610000   4.0070000 -16.8690000  17.8680000
   2.7680000 -16.7630000  17.0040000   3.4430000 -17.2290000  17.3060000
  -8.5550000 -15.8040000  18.0820000  -8.1610000 -15.8740000  17.2120000
  -7.9430000 -16.2590000  18.6590000  -8.4260000 -15.8700000  18.0440000
   6.1660000 -20.1240000  13.4540000   6.1230000 -19.5050000  14.1840000
   5.8000000 -20.9350000  13.8060000   6.1140000 -20.1480000  13.5930000
   0.9160000 -19.2600000  13.9330000   0.2440000 -19.9410000  13.9630000
   0.9950000 -19.0430000  13.0040000   0.8400000 -19.3190000  13.8180000
  -9.4510000 -20.0120000  13.6990000  -8.7860000 -19.4120000  14.0370000
 -10.2840000 -19.5780000  13.8880000  -9.4720000 -19.8800000  13.7670000
  -7.1180000 -15.5670000  15.9010000  -6.4390000 -15.8460000  16.5150000
  -7.0210000 -14.6170000  15.8520000  -7.0190000 -15.4810000  15.9740000
  -1.7040000 -16.8310000  10.9880000  -2.0870000 -17.1400000  10.1670000
  -1.4650000 -15.9190000  10.8130000  -1.7220000 -16.7540000  10.8610000
   6.3080000 -14.2600000  16.9090000   5.3930000 -14.2500000  16.6260000
   6.4300000 -15.1280000  17.2940000   6.2060000 -14.3690000  16.9220000
  -4.0700000 -17.9430000  13.9930000  -3.2470000 -17.4570000  13.9550000
  -4.0190000 -18.4380000  14.8100000  -3.9580000 -17.9440000  14.0920000
  -7.3790000 -10.0680000  18.0690000  -7.9210000  -9.6450000  18.7360000
  -6.4810000  -9.8710000  18.3310000  -7.3350000  -9.9880000  18.1880000
  -1.7750000 -16.3060000  13.9950000  -2.2980000 -15.6030000  14.3810000
  -1.7630000 -16.1100000  13.0590000  -1.8400000 -16.1910000  13.9250000
   5.2680000 -21.4390000  10.1590000   5.7460000 -21.7920000   9.4100000
   5.7700000 -20.6670000  10.4220000   5.3930000 -21.3850000  10.0970000
   3.2080000 -20.2240000  17.2720000   3.7060000 -20.4310000  16.4810000
   3.3920000 -19.2990000  17.4360000   3.2950000 -20.1320000  17.1920000
  -2.1670000 -21.4780000  11.0130000  -2.6480000 -22.2950000  10.8820000
  -1.7330000 -21.3190000  10.1750000  -2.1730000 -21.5620000  10.8890000
  -8.2030000 -16.4410000  11.4710000  -7.4360000 -16.7640000  11.9460000
  -8.9450000 -16.6800000  12.0260000  -8.2010000 -16.5130000  11.6030000
   9.2290000 -13.1740000  18.1260000   8.3850000 -12.7610000  18.3100000
   9.0970000 -14.0960000  18.3440000   9.1040000 -13.2390000  18.1770000
   0.5290000 -19.6280000  17.8950000   0.1220000 -18.8680000  17.4790000
   1.3910000 -19.6930000  17.4850000   0.5870000 -19.5390000  17.7890000
   5.0660000 -18.3890000  15.3770000   5.7400000 -17.9770000  15.9170000
   4.2560000 -17.9430000  15.6230000   5.0490000 -18.2790000  15.4770000
  -6.7810000 -17.8980000  18.8800000  -5.8230000 -17.9140000  18.8610000
  -7.0260000 -18.7120000  19.3200000  -6.6890000 -18.0040000  18.9340000
  -3.4330000 -19.4580000  16.1020000  -3.2450000 -20.2100000  15.5400000
  -2.5780000 -19.0670000  16.2720000  -3.3000000 -19.5040000  16.0520000
  -0.9830000 -14.2510000  10.3850000  -0.1390000 -14.2890000  10.8360000
  -0.7600000 -14.0460000   9.4770000  -0.8460000 -14.2300000  10.3270000
  -3.9320000 -18.4610000  18.6540000  -3.6750000 -18.8790000  17.8320000
  -3.8490000 -19.1530000  19.3100000  -3.8880000 -18.6020000  18.6330000
   3.3800000 -14.0060000  19.1130000   3.4780000 -13.7590000  18.1930000
   2.5260000 -13.6560000  19.3650000   3.2830000 -13.9300000  19.0280000
   0.7700000  -9.5920000  16.4520000   0.5850000 -10.4190000  16.0060000
   0.4580000  -8.9190000  15.8470000   0.7060000  -9.6120000  16.3170000
   2.3580000 -10.3570000   9.5420000   2.5160000  -9.5180000   9.1090000
   2.6200000 -10.2100000  10.4510000   2.4120000 -10.2310000   9.6030000
   4.4680000 -11.5800000  19.6520000   3.9240000 -10.9800000  19.1410000
   4.0770000 -12.4410000  19.5060000   4.3490000 -11.6130000  19.5680000
  -1.4400000  -9.2120000  18.6250000  -1.4740000  -9.8990000  19.2900000
  -0.9640000  -9.6070000  17.8950000  -1.3840000  -9.3500000  18.6170000
   0.4390000 -18.4840000  11.3130000   1.1690000 -17.8640000  11.3020000
  -0.3430000 -17.9330000  11.2820000   0.4320000 -18.3340000  11.3070000
   3.9520000 -11.1260000  15.2420000   3.5840000 -10.5450000  15.9070000
   4.8430000 -10.8030000  15.1080000   4.0190000 -11.0100000  15.3100000
  -8.0450000 -22.1500000  14.8900000  -7.6460000 -21.5650000  15.5340000
  -8.5100000 -21.5650000  14.2910000  -8.0530000 -22.0000000  14.8960000
  -5.1690000 -15.4350000  11.2190000  -5.0830000 -15.4860000  10.2670000
  -5.7230000 -14.6670000  11.3680000  -5.2290000 -15.3430000  11.1160000
  -4.5590000 -16.0570000  17.1840000  -4.6460000 -15.2770000  17.7330000
  -4.4870000 -16.7810000  17.8070000  -4.5610000 -16.0500000  17.3340000
   7.7100000 -11.9410000  15.5600000   7.7800000 -12.5700000  16.2770000
   7.7760000 -12.4730000  14.7670000   7.7270000 -12.0890000  15.5500000
  -2.8320000 -21.3540000  13.7060000  -2.4590000 -21.4190000  12.8270000
  -3.7370000 -21.6500000  13.6050000  -2.9000000 -21.4010000  13.5810000
  -3.1330000 -14.1970000  12.1400000  -3.8650000 -14.6860000  11.7640000
  -2.4730000 -14.1840000  11.4480000  -3.1430000 -14.2580000  12.0040000
   0.3580000 -20.7850000   9.3300000   0.3390000 -20.1360000  10.0320000
   0.7130000 -21.5740000   9.7420000   0.4010000 -20.8030000   9.4720000
   2.3200000 -11.9070000  13.2000000   1.6350000 -11.9790000  13.8650000
   3.1180000 -11.7290000  13.6970000   2.3340000 -11.8940000  13.3490000
   3.3290000 -12.9350000   9.4470000   2.9290000 -12.0670000   9.4970000
   2.8530000 -13.4560000  10.0940000   3.2170000 -12.8900000   9.5360000
  -3.2930000 -14.6140000  15.3030000  -3.9280000 -15.0690000  15.8540000
  -3.7800000 -13.8800000  14.9300000  -3.4350000 -14.5780000  15.3260000
   6.9660000 -15.4820000  14.4040000   6.9880000 -15.3660000  15.3540000
   7.1390000 -14.6090000  14.0530000   6.9910000 -15.3550000  14.4810000
   6.3410000  -9.5420000  14.7110000   6.0770000  -9.5770000  13.7920000
   6.9630000 -10.2630000  14.8100000   6.3870000  -9.6390000  14.6060000
   3.5150000  -9.5460000  12.2220000   2.9990000 -10.2310000  12.6480000
   3.0320000  -8.7390000  12.3960000   3.3870000  -9.5310000  12.2990000
  -0.1780000 -11.5910000  14.7520000  -0.4160000 -12.4040000  15.1960000
  -0.9830000 -11.3130000  14.3150000  -0.3110000 -11.6590000  14.7530000
  -7.3820000 -18.2360000  14.3660000  -6.4250000 -18.2040000  14.3930000
  -7.6520000 -17.3190000  14.4040000  -7.2930000 -18.1150000  14.3740000
   3.2870000 -20.6850000  14.7210000   3.9070000 -20.2410000  14.1420000
   2.4770000 -20.1810000  14.6360000   3.2630000 -20.5630000  14.6360000
 -10.0940000 -14.6330000  10.6820000  -9.4650000 -15.1560000  11.1810000
  -9.6000000 -14.3270000   9.9210000  -9.9500000 -14.6610000  10.6490000
  -4.4210000 -12.5490000  13.9530000  -5.1210000 -12.1510000  13.4360000
  -3.9890000 -13.1520000  13.3470000  -4.4560000 -12.5750000  13.8090000
  -1.0020000 -18.2220000  16.0940000  -0.4880000 -18.8220000  15.5540000
  -1.2760000 -17.5320000  15.4900000  -0.9720000 -18.2110000  15.9480000
   8.6930000 -10.3630000  12.3830000   9.2800000 -10.5400000  11.6480000
   8.1020000  -9.6830000  12.0590000   8.6920000 -10.2990000  12.2470000
  -8.5160000 -10.8670000  10.1400000  -7.9580000 -11.6260000  10.3120000
  -7.9480000 -10.1130000  10.2960000  -8.3710000 -10.8680000  10.1820000
  -9.6210000 -18.2480000  16.5820000  -9.0250000 -17.9920000  15.8780000
  -9.3190000 -17.7530000  17.3440000  -9.5070000 -18.1520000  16.5890000
   6.7480000 -17.1510000  17.3680000   7.6010000 -17.4920000  17.0980000
   6.7700000 -17.1800000  18.3240000   6.8600000 -17.1990000  17.4550000
   4.8940000 -16.4800000  12.5830000   5.2900000 -16.1390000  13.3850000
   5.3850000 -16.0610000  11.8760000   5.0070000 -16.3830000  12.5950000
  -5.4010000 -11.2670000   4.2640000  -6.3560000 -11.3350000   4.2320000
  -5.2120000 -10.9600000   5.1500000  -5.4990000 -11.2360000   4.3730000
  -0.6360000 -13.8230000  -2.5730000  -0.8100000 -13.6620000  -1.6450000
  -1.4010000 -14.3090000  -2.8790000  -0.7560000 -13.8640000  -2.4930000
  -4.0660000 -18.9260000  -7.2420000  -4.2190000 -18.4690000  -6.4150000
  -3.3530000 -19.5360000  -7.0500000  -3.9940000 -18.9450000  -7.1120000
   6.0960000 -12.7670000  -9.0560000   5.2340000 -12.4390000  -9.3120000
   6.0000000 -13.7190000  -9.0570000   5.9730000 -12.8470000  -9.0890000
  -7.1780000 -12.6700000  -2.2790000  -7.1410000 -11.7770000  -2.6230000
  -7.9770000 -12.6910000  -1.7530000  -7.2760000 -12.5580000  -2.2560000
  -2.4670000 -10.8800000  -5.5900000  -3.2670000 -11.4070000  -5.5800000
  -2.1230000 -10.9830000  -6.4770000  -2.5250000 -10.9610000  -5.7020000
   1.4410000 -15.8940000  -3.1230000   1.0150000 -16.5020000  -3.7270000
   0.7780000 -15.2280000  -2.9450000   1.3020000 -15.8870000  -3.1770000
   8.3120000 -20.9710000  -2.0290000   7.5330000 -20.8620000  -1.4840000
   8.6560000 -20.0860000  -2.1380000   8.2560000 -20.8450000  -1.9730000
  -0.3570000 -17.6560000   5.4030000  -0.4850000 -18.5210000   5.7920000
   0.0860000 -17.8310000   4.5720000  -0.3170000 -17.7890000   5.3460000
   2.5190000 -16.7040000  -7.5780000   3.2890000 -16.6830000  -7.0110000
   2.8380000 -17.0710000  -8.4020000   2.6580000 -16.7480000  -7.6110000
   8.2550000 -17.0670000  -5.8480000   7.8890000 -16.4260000  -5.2380000
   7.4900000 -17.4890000  -6.2400000   8.1100000 -17.0390000  -5.8200000
   6.2370000 -15.4660000  -8.8310000   6.2790000 -15.6010000  -9.7780000
   7.1230000 -15.2000000  -8.5880000   6.3560000 -15.4500000  -8.9210000
  -8.3610000 -16.9890000   6.5530000  -9.2820000 -17.2090000   6.4130000
  -8.2800000 -16.8820000   7.5000000  -8.4690000 -17.0040000   6.6560000
   3.2300000 -13.3000000  -2.2420000   3.4060000 -12.4500000  -2.6450000
   2.4710000 -13.6370000  -2.7160000   3.1560000 -13.2340000  -2.3540000
   3.0200000  -9.9750000  -0.9900000   3.6060000  -9.2380000  -1.1650000
   2.2380000  -9.7890000  -1.5090000   2.9950000  -9.8570000  -1.0790000
   1.8090000 -21.8350000   6.5470000   2.3950000 -21.5220000   7.2360000
   1.0830000 -21.2100000   6.5470000   1.7910000 -21.7150000   6.6350000
  -0.5710000 -21.3340000  -3.9210000  -1.3960000 -21.3520000  -4.4060000
  -0.8220000 -21.5200000  -3.0160000  -0.7090000 -21.3600000  -3.8670000
  -3.4570000 -11.6690000   0.6960000  -3.7180000 -12.0440000   1.5370000
  -2.7270000 -12.2140000   0.4070000  -3.3970000 -11.7870000   0.7660000
  -5.2190000 -13.4760000  -0.5890000  -5.9430000 -13.1730000  -1.1370000
  -4.6250000 -12.7260000  -0.5410000  -5.2360000 -13.3410000  -0.6530000
  -5.7460000 -19.7120000  -9.2510000  -6.3490000 -18.9750000  -9.3470000
  -5.1170000 -19.4220000  -8.5900000  -5.7430000 -19.5810000  -9.1790000
  -1.3190000 -11.2500000  -7.9580000  -0.8600000 -12.0720000  -7.7860000
  -0.6210000 -10.6100000  -8.0970000  -1.1710000 -11.2730000  -7.9540000
  -2.5960000 -20.7590000   1.0240000  -1.7150000 -20.4670000   1.2560000
  -2.5100000 -21.0930000   0.1310000  -2.4720000 -20.7640000   0.9390000
  -8.7020000 -14.2960000   8.3580000  -9.4650000 -13.7280000   8.2410000
  -8.4980000 -14.6060000   7.4760000  -8.7750000 -14.2630000   8.2300000
  -6.6320000 -13.0010000   9.6950000  -6.1480000 -12.4400000   9.0880000
  -7.0740000 -13.6370000   9.1340000  -6.6260000 -13.0100000   9.5460000
  -3.0050000 -11.2650000   8.4930000  -2.4310000 -11.3520000   9.2540000
  -3.0470000 -10.3230000   8.3310000  -2.9370000 -11.1560000   8.5690000
   6.8300000 -16.9320000   1.3300000   7.2700000 -16.4250000   2.0130000
   6.1580000 -17.4290000   1.7960000   6.8010000 -16.9310000   1.4770000
   8.0450000 -15.1640000   3.5580000   7.3310000 -14.5590000   3.3590000
   8.7610000 -14.6010000   3.8550000   8.0460000 -15.0150000   3.5710000
  -2.6500000 -17.4110000   8.3940000  -2.8070000 -18.3550000   8.3580000
  -2.7390000 -17.1190000   7.4870000  -2.6820000 -17.4950000   8.2730000
   1.5570000 -14.1030000  -7.5040000   1.8610000 -14.9950000  -7.3480000
   2.0840000 -13.5630000  -6.9150000   1.6630000 -14.1480000  -7.4090000
   4.6670000 -18.4300000   2.2500000   3.7920000 -18.6870000   1.9600000
   5.0190000 -19.2130000   2.6740000   4.6000000 -18.5630000   2.2670000
  -5.6240000 -11.5140000   7.4080000  -5.8770000 -10.6100000   7.5990000
  -4.7190000 -11.5790000   7.7110000  -5.5400000 -11.4060000   7.4710000
   7.6900000 -13.1900000  -5.9510000   7.8110000 -12.3150000  -6.3190000
   7.8990000 -13.7840000  -6.6720000   7.7320000 -13.1540000  -6.0910000
  -7.9130000  -9.7080000  -4.7680000  -8.6950000  -9.8390000  -5.3060000
  -7.9430000  -8.7830000  -4.5240000  -8.0170000  -9.6060000  -4.8060000
   2.1380000 -13.9060000   7.1830000   2.7200000 -14.0700000   7.9240000
   1.5450000 -13.2190000   7.4910000   2.1360000 -13.8390000   7.3170000
  -1.5600000 -13.4420000  -0.0780000  -2.0400000 -14.2500000   0.0990000
  -0.8300000 -13.4560000   0.5410000  -1.5280000 -13.5470000   0.0240000
  11.8520000 -20.5250000  -1.6940000  11.8660000 -20.8380000  -0.7890000
  11.8030000 -19.5720000  -1.6170000  11.8480000 -20.4430000  -1.5680000
  -2.0170000 -20.9410000   4.3090000  -2.8620000 -21.2610000   4.6260000
  -1.5440000 -21.7320000   4.0500000  -2.0650000 -21.0830000   4.3170000
  -5.0900000 -15.7550000   8.6430000  -4.2790000 -16.2430000   8.5010000
  -5.3590000 -15.4780000   7.7670000  -5.0210000 -15.7820000   8.5120000
  -6.1820000 -11.1830000  -6.2340000  -6.7640000 -10.6850000  -5.6610000
  -5.9530000 -10.5720000  -6.9340000  -6.2270000 -11.0410000  -6.2500000
   7.4170000 -19.6240000  -7.8100000   6.9600000 -19.8650000  -7.0040000
   8.3430000 -19.7640000  -7.6110000   7.4770000 -19.6730000  -7.6810000
  -2.8280000 -16.7150000   5.6710000  -1.9480000 -17.0880000   5.6190000
  -3.3660000 -17.2960000   5.1340000  -2.7840000 -16.8370000   5.5960000
   6.1610000 -13.0040000   4.0280000   5.8100000 -13.1070000   4.9130000
   6.3090000 -12.0620000   3.9380000   6.1350000 -12.8970000   4.1300000
   8.2980000 -11.2360000   5.9070000   8.4960000 -11.6320000   6.7570000
   7.6270000 -10.5820000   6.0980000   8.2370000 -11.2040000   6.0400000
   3.6160000 -18.4580000   5.3200000   3.0590000 -18.8520000   4.6480000
   3.0400000 -17.8480000   5.7800000   3.4710000 -18.4300000   5.2930000
   7.5300000 -19.1970000   8.5140000   6.7070000 -18.8570000   8.1650000
   7.3860000 -19.2530000   9.4590000   7.4070000 -19.1610000   8.5900000
  -5.5450000 -18.8800000   2.9460000  -5.9230000 -19.0070000   3.8160000
  -6.1080000 -19.3910000   2.3640000  -5.6650000 -18.9610000   2.9830000
   3.4620000 -17.3700000  -1.5990000   4.0070000 -16.8690000  -0.9920000
   2.7680000 -16.7630000  -1.8560000   3.4430000 -17.2290000  -1.5540000
  -8.5550000 -15.8040000  -0.7780000  -8.1610000 -15.8740000  -1.6480000
  -7.9430000 -16.2590000  -0.2010000  -8.4260000 -15.8700000  -0.8160000
   6.1660000 -20.1240000  -5.4060000   6.1230000 -19.5050000  -4.6760000
   5.8000000 -20.9350000  -5.0540000   6.1140000 -20.1480000  -5.2670000
   0.9160000 -19.2600000  -4.9270000   0.2440000 -19.9410000  -4.8970000
   0.9950000 -19.0430000  -5.8560000   0.8400000 -19.3190000  -5.0420000
   2.1020000 -10.2810000   4.1910000   1.5530000 -10.3500000   3.4110000
   2.4660000 -11.1580000   4.3070000   2.0790000 -10.4020000   4.1060000
  -3.4640000 -20.2860000   8.1420000  -3.5790000 -20.5700000   7.2350000
  -4.3560000 -20.1830000   8.4750000  -3.5930000 -20.3090000   8.0680000
  -3.0340000 -15.7670000   1.0200000  -3.0750000 -16.7220000   0.9830000
  -3.4890000 -15.5390000   1.8300000  -3.0980000 -15.8600000   1.1190000
   4.9310000 -19.1140000   7.7020000   4.2400000 -19.7540000   7.8700000
   4.7230000 -18.7580000   6.8390000   4.8160000 -19.1510000   7.6130000
  -9.4510000 -20.0120000  -5.1610000  -8.7860000 -19.4120000  -4.8230000
 -10.2840000 -19.5780000  -4.9720000  -9.4720000 -19.8800000  -5.0930000
  -7.1180000 -15.5670000  -2.9590000  -6.4390000 -15.8460000  -2.3450000
  -7.0210000 -14.6170000  -3.0080000  -7.0190000 -15.4810000  -2.8860000
  -1.7040000 -16.8310000  -7.8720000  -2.0870000 -17.1400000  -8.6930000
  -1.4650000 -15.9190000  -8.0470000  -1.7220000 -16.7540000  -7.9990000
   0.8090000 -13.1560000   1.4300000   0.7450000 -13.6760000   2.2320000
   1.3540000 -12.4070000   1.6730000   0.8700000 -13.1260000   1.5640000
   6.3080000 -14.2600000  -1.9510000   5.3930000 -14.2500000  -2.2340000
   6.4300000 -15.1280000  -1.5660000   6.2060000 -14.3690000  -1.9380000
  -4.0700000 -17.9430000  -4.8670000  -3.2470000 -17.4570000  -4.9050000
  -4.0190000 -18.4380000  -4.0500000  -3.9580000 -17.9440000  -4.7680000
  -7.3790000 -10.0680000  -0.7910000  -7.9210000  -9.6450000  -0.1240000
  -6.4810000  -9.8710000  -0.5290000  -7.3350000  -9.9880000  -0.6720000
  -1.7750000 -16.3060000  -4.8650000  -2.2980000 -15.6030000  -4.4790000
  -1.7630000 -16.1100000  -5.8010000  -1.8400000 -16.1910000  -4.9350000
   5.2680000 -21.4390000  -8.7010000   5.7460000 -21.7920000  -9.4500000
   5.7700000 -20.6670000  -8.4380000   5.3930000 -21.3850000  -8.7630000
  -5.8380000 -16.0030000   6.1290000  -5.8770000 -15.6860000   5.2270000
  -6.7110000 -16.3620000   6.2940000  -5.9560000 -16.0090000   6.0350000
  -1.9300000 -14.2630000   4.7040000  -2.7130000 -13.8570000   4.3350000
  -2.2180000 -15.1340000   4.9770000  -2.0670000 -14.3230000   4.6920000
  -8.1920000 -12.2510000   1.4470000  -7.5370000 -11.8900000   0.8500000
  -8.8710000 -12.6060000   0.8720000  -8.1950000 -12.2500000   1.2970000
  -2.9040000 -18.3060000   3.1830000  -2.5790000 -19.1090000   3.5900000
  -3.7730000 -18.5380000   2.8570000  -2.9740000 -18.4380000   3.1930000
  -7.2880000 -17.3720000   9.1520000  -6.4860000 -16.8620000   9.0420000
  -7.7380000 -16.9540000   9.8860000  -7.2430000 -17.2530000   9.2320000
   3.2080000 -20.2240000  -1.5880000   3.7060000 -20.4310000  -2.3790000
   3.3920000 -19.2990000  -1.4240000   3.2950000 -20.1320000  -1.6680000
  -2.1670000 -21.4780000  -7.8470000  -2.6480000 -22.2950000  -7.9780000
  -1.7330000 -21.3190000  -8.6850000  -2.1730000 -21.5620000  -7.9710000
  -8.2030000 -16.4410000  -7.3890000  -7.4360000 -16.7640000  -6.9140000
  -8.9450000 -16.6800000  -6.8340000  -8.2010000 -16.5130000  -7.2570000
   7.8960000  -9.4520000   0.4800000   7.7490000 -10.3950000   0.5610000
   8.5500000  -9.2540000   1.1510000   7.9610000  -9.5480000   0.5760000
   9.2290000 -13.1740000  -0.7340000   8.3850000 -12.7610000  -0.5500000
   9.0970000 -14.0960000  -0.5160000   9.1040000 -13.2390000  -0.6830000
   0.5290000 -19.6280000  -0.9650000   0.1220000 -18.8680000  -1.3810000
   1.3910000 -19.6930000  -1.3750000   0.5870000 -19.5390000  -1.0710000
   5.0660000 -18.3890000  -3.4830000   5.7400000 -17.9770000  -2.9430000
   4.2560000 -17.9430000  -3.2370000   5.0490000 -18.2790000  -3.3830000
  -6.7810000 -17.8980000   0.0200000  -5.8230000 -17.9140000   0.0010000
  -7.0260000 -18.7120000   0.4600000  -6.6890000 -18.0040000   0.0740000
   8.6880000 -18.9600000   1.5030000   8.2990000 -19.4340000   2.2390000
   8.1530000 -18.1710000   1.4170000   8.5700000 -18.9200000   1.5860000
   0.5970000 -14.5350000   3.8680000   0.9900000 -13.7140000   4.1640000
  -0.3160000 -14.4800000   4.1500000   0.5310000 -14.4230000   3.9420000
   5.8210000 -21.2510000   3.0170000   5.5560000 -21.9030000   3.6670000
   6.0400000 -21.7640000   2.2390000   5.8150000 -21.4000000   3.0010000
  -3.4330000 -19.4580000  -2.7580000  -3.2450000 -20.2100000  -3.3200000
  -2.5780000 -19.0670000  -2.5880000  -3.3000000 -19.5040000  -2.8080000
  -0.9830000 -14.2510000  -8.4750000  -0.1390000 -14.2890000  -8.0240000
  -0.7600000 -14.0460000  -9.3830000  -0.8460000 -14.2300000  -8.5330000
  -3.9320000 -18.4610000  -0.2060000  -3.6750000 -18.8790000  -1.0280000
  -3.8490000 -19.1530000   0.4500000  -3.8880000 -18.6020000  -0.2270000
   3.3800000 -14.0060000   0.2530000   3.4780000 -13.7590000  -0.6670000
   2.5260000 -13.6560000   0.5050000   3.2830000 -13.9300000   0.1680000
   0.7700000  -9.5920000  -2.4080000   0.5850000 -10.4190000  -2.8540000
   0.4580000  -8.9190000  -3.0130000   0.7060000  -9.6120000  -2.5430000
   2.3580000 -10.3570000  -9.3180000   2.5160000  -9.5180000  -9.7510000
   2.6200000 -10.2100000  -8.4090000   2.4120000 -10.2310000  -9.2570000
   4.4680000 -11.5800000   0.7920000   3.9240000 -10.9800000   0.2810000
   4.0770000 -12.4410000   0.6460000   4.3490000 -11.6130000   0.7080000
   8.2430000 -20.1710000   4.4150000   7.3470000 -20.4950000   4.3280000
   8.1430000 -19.2760000   4.7400000   8.1150000 -20.0980000   4.4460000
  -1.4400000  -9.2120000  -0.2350000  -1.4740000  -9.8990000   0.4300000
  -0.9640000  -9.6070000  -0.9650000  -1.3840000  -9.3500000  -0.2430000
   0.4390000 -18.4840000  -7.5470000   1.1690000 -17.8640000  -7.5580000
  -0.3430000 -17.9330000  -7.5780000   0.4320000 -18.3340000  -7.5530000
   0.0710000 -21.1030000   1.5690000  -0.3780000 -21.8570000   1.9510000
   0.7930000 -21.4830000   1.0690000   0.1060000 -21.2480000   1.5540000
   1.6060000 -16.9790000   3.2810000   1.3300000 -16.1550000   3.6830000
   2.5570000 -16.9920000   3.3900000   1.6930000 -16.8750000   3.3460000
   0.9620000  -9.7560000   1.5300000   1.7520000  -9.2180000   1.4760000
   0.3620000  -9.3640000   0.8960000   0.9860000  -9.6370000   1.4420000
  -7.0080000 -19.1310000   5.4180000  -7.6870000 -18.4920000   5.6380000
  -7.4170000 -19.9800000   5.5810000  -7.1490000 -19.1580000   5.4670000
   3.9520000 -11.1260000  -3.6180000   3.5840000 -10.5450000  -2.9530000
   4.8430000 -10.8030000  -3.7520000   4.0190000 -11.0100000  -3.5500000
   2.0570000 -18.6890000   1.3670000   1.7890000 -18.0460000   2.0240000
   1.2580000 -18.8700000   0.8710000   1.9200000 -18.6300000   1.3870000
  -9.4010000 -21.0510000   7.9870000 -10.0010000 -20.3180000   8.1280000
  -8.8550000 -21.0680000   8.7730000  -9.4080000 -20.9590000   8.1060000
  -8.0450000 -22.1500000  -3.9700000  -7.6460000 -21.5650000  -3.3260000
  -8.5100000 -21.5650000  -4.5690000  -8.0530000 -22.0000000  -3.9640000
   2.0340000 -20.3550000   3.9290000   1.8710000 -20.0460000   3.0380000
   1.1730000 -20.6190000   4.2520000   1.9030000 -20.3490000   3.8570000
  -5.1690000 -15.4350000  -7.6410000  -5.0830000 -15.4860000  -8.5930000
  -5.7230000 -14.6670000  -7.4920000  -5.2290000 -15.3430000  -7.7440000
   1.9660000 -16.6920000   6.4650000   1.1480000 -16.8480000   5.9940000
   2.0140000 -15.7400000   6.5540000   1.8680000 -16.5900000   6.4160000
  -7.6560000 -20.2140000   1.2180000  -8.4350000 -19.7080000   1.4490000
  -7.9170000 -21.1260000   1.3410000  -7.7880000 -20.2660000   1.2630000
   7.7890000 -10.7190000   3.2650000   8.0710000 -10.8150000   4.1750000
   7.0080000 -10.1680000   3.3140000   7.7250000 -10.6610000   3.3880000
  -4.5590000 -16.0570000  -1.6760000  -4.6460000 -15.2770000  -1.1270000
  -4.4870000 -16.7810000  -1.0530000  -4.5610000 -16.0500000  -1.5260000
  -4.4570000 -20.9160000   5.5080000  -4.5480000 -21.0350000   4.5630000
  -5.1810000 -20.3380000   5.7460000  -4.5610000 -20.8570000   5.4170000
   7.7100000 -11.9410000  -3.3000000   7.7800000 -12.5700000  -2.5830000
   7.7760000 -12.4730000  -4.0930000   7.7270000 -12.0890000  -3.3100000
  -2.8320000 -21.3540000  -5.1540000  -2.4590000 -21.4190000  -6.0330000
  -3.7370000 -21.6500000  -5.2550000  -2.9000000 -21.4010000  -5.2790000
  -3.1330000 -14.1970000  -6.7200000  -3.8650000 -14.6860000  -7.0960000
  -2.4730000 -14.1840000  -7.4120000  -3.1430000 -14.2580000  -6.8560000
  -8.1870000 -10.8520000   3.8510000  -8.4810000 -11.1250000   2.9810000
  -8.4960000  -9.9500000   3.9350000  -8.2650000 -10.7720000   3.7500000
   0.3580000 -20.7850000  -9.5300000   0.3390000 -20.1360000  -8.8280000
   0.7130000 -21.5740000  -9.1180000   0.4010000 -20.8030000  -9.3880000
  -4.2720000 -13.4880000   3.2490000  -4.8430000 -12.8010000   3.5960000
  -4.7240000 -14.3040000   3.4630000  -4.4040000 -13.5040000   3.3210000
   2.3200000 -11.9070000  -5.6600000   1.6350000 -11.9790000  -4.9950000
   3.1180000 -11.7290000  -5.1630000   2.3340000 -11.8940000  -5.5110000
   3.3290000 -12.9350000  -9.4130000   2.9290000 -12.0670000  -9.3630000
   2.8530000 -13.4560000  -8.7660000   3.2170000 -12.8900000  -9.3240000
  -3.2930000 -14.6140000  -3.5570000  -3.9280000 -15.0690000  -3.0060000
  -3.7800000 -13.8800000  -3.9300000  -3.4350000 -14.5780000  -3.5340000
   2.5860000 -12.9430000   4.6480000   2.3830000 -13.2530000   5.5300000
   3.1000000 -13.6510000   4.2580000   2.6260000 -13.0740000   4.7110000
   5.2310000 -15.3410000   7.2950000   4.5910000 -15.8740000   7.7670000
   5.1930000 -15.6640000   6.3940000   5.1440000 -15.4510000   7.2400000
  -1.0020000 -12.9730000   7.4300000  -1.3890000 -13.3380000   6.6340000
  -1.6500000 -12.3440000   7.7450000  -1.1350000 -12.9400000   7.3690000
  -8.6420000 -13.6190000   4.7990000  -9.0250000 -12.7760000   5.0430000
  -7.8180000 -13.3930000   4.3680000  -8.5870000 -13.4820000   4.7750000
   7.8980000 -17.5040000   5.1120000   7.0070000 -17.2880000   5.3900000
   8.1750000 -16.7510000   4.5900000   7.8190000 -17.3800000   5.0810000
   6.9660000 -15.4820000  -4.4560000   6.9880000 -15.3660000  -3.5060000
   7.1390000 -14.6090000  -4.8070000   6.9910000 -15.3550000  -4.3790000
   6.3410000  -9.5420000  -4.1490000   6.0770000  -9.5770000  -5.0680000
   6.9630000 -10.2630000  -4.0500000   6.3870000  -9.6390000  -4.2540000
   3.5150000  -9.5460000  -6.6380000   2.9990000 -10.2310000  -6.2120000
   3.0320000  -8.7390000  -6.4640000   3.3870000  -9.5310000  -6.5610000
  -7.9940000 -21.6350000   5.7460000  -8.5610000 -21.2740000   5.0640000
  -8.4900000 -21.5190000   6.5560000  -8.1300000 -21.5740000   5.7620000
   3.2520000  -8.0030000   1.6630000   4.0270000  -8.1590000   1.1240000
   3.2210000  -7.0520000   1.7690000   3.3470000  -7.9010000   1.6080000
  -0.1780000 -11.5910000  -4.1080000  -0.4160000 -12.4040000  -3.6640000
  -0.9830000 -11.3130000  -4.5450000  -0.3110000 -11.6590000  -4.1070000
   5.0150000 -12.1710000   7.1990000   5.2850000 -13.0750000   7.3590000
   4.0630000 -12.1840000   7.3000000   4.9280000 -12.2880000   7.2330000
   5.3250000 -16.4650000   4.8960000   4.7150000 -17.2010000   4.9520000
   4.8930000 -15.8410000   4.3130000   5.1920000 -16.4800000   4.8290000
  -5.5770000 -15.8760000   3.3210000  -6.0380000 -15.5330000   2.5560000
  -5.4960000 -16.8150000   3.1490000  -5.6270000 -15.9530000   3.2010000
  -7.3820000 -18.2360000  -4.4940000  -6.4250000 -18.2040000  -4.4670000
  -7.6520000 -17.3190000  -4.4560000  -7.2930000 -18.1150000  -4.4860000
   3.2870000 -20.6850000  -4.1390000   3.9070000 -20.2410000  -4.7180000
   2.4770000 -20.1810000  -4.2240000   3.2630000 -20.5630000  -4.2240000
 -10.0940000 -14.6330000  -8.1780000  -9.4650000 -15.1560000  -7.6790000
  -9.6000000 -14.3270000  -8.9390000  -9.9500000 -14.6610000  -8.2110000
  -4.4210000 -12.5490000  -4.9070000  -5.1210000 -12.1510000  -5.4240000
  -3.9890000 -13.1520000  -5.5130000  -4.4560000 -12.5750000  -5.0510000
   4.1800000 -14.6060000   2.9150000   4.0070000 -14.6830000   1.9770000
   4.9630000 -14.0590000   2.9700000   4.2580000 -14.5460000   2.8020000
  -1.0020000 -18.2220000  -2.7660000  -0.4880000 -18.8220000  -3.3060000
  -1.2760000 -17.5320000  -3.3700000  -0.9720000 -18.2110000  -2.9120000
   6.0260000  -9.6550000   6.5250000   6.4350000  -9.4830000   7.3730000
   5.7570000 -10.5720000   6.5700000   6.0440000  -9.7500000   6.6390000
   8.6930000 -10.3630000  -6.4770000   9.2800000 -10.5400000  -7.2120000
   8.1020000  -9.6830000  -6.8010000   8.6920000 -10.2990000  -6.6130000
  -8.5160000 -10.8670000  -8.7200000  -7.9580000 -11.6260000  -8.5480000
  -7.9480000 -10.1130000  -8.5640000  -8.3710000 -10.8680000  -8.6780000
   8.5330000 -12.0080000   8.5180000   7.7610000 -11.9770000   9.0820000
   9.1500000 -11.3980000   8.9240000   8.5130000 -11.9260000   8.6430000
   3.4340000 -16.8810000   8.5870000   2.6230000 -16.8430000   8.0800000
   3.7980000 -17.7440000   8.3920000   3.3770000 -16.9860000   8.4970000
  -9.6210000 -18.2480000  -2.2780000  -9.0250000 -17.9920000  -2.9820000
  -9.3190000 -17.7530000  -1.5160000  -9.5070000 -18.1520000  -2.2710000
  -6.9400000 -14.7410000   1.5270000  -6.6810000 -14.0480000   0.9190000
  -7.8120000 -14.4820000   1.8260000  -7.0190000 -14.6190000   1.4870000
   6.7480000 -17.1510000  -1.4920000   7.6010000 -17.4920000  -1.7620000
   6.7700000 -17.1800000  -0.5360000   6.8600000 -17.1990000  -1.4050000
  -0.3220000 -20.2400000   6.4130000  -1.0760000 -20.5700000   5.9240000
  -0.5230000 -20.4380000   7.3270000  -0.4440000 -20.3080000   6.4670000
   3.2280000 -20.9170000   8.4820000   2.4440000 -20.9560000   9.0300000
   3.8650000 -21.4680000   8.9360000   3.2090000 -20.9920000   8.6100000
   4.8940000 -16.4800000  -6.2770000   5.2900000 -16.1390000  -5.4750000
   5.3850000 -16.0610000  -6.9840000   5.0070000 -16.3830000  -6.2650000
   4.6230000 -22.3940000   5.6850000   5.3160000 -22.2000000   6.3170000
   3.9870000 -21.6880000   5.8030000   4.6300000 -22.2790000   5.7810000
   5.0880000 -10.1240000   3.1600000   4.6150000  -9.2910000   3.1530000
   4.5570000 -10.7050000   2.6160000   4.9590000 -10.0920000   3.0900000
  -5.4010000 -11.2670000 -14.5960000  -6.3560000 -11.3350000 -14.6280000
  -5.2120000 -10.9600000 -13.7100000  -5.4990000 -11.2360000 -14.4870000
  -0.3570000 -17.6560000 -13.4570000  -0.4850000 -18.5210000 -13.0680000
   0.0860000 -17.8310000 -14.2880000  -0.3170000 -17.7890000 -13.5140000
  -8.3610000 -16.9890000 -12.3070000  -9.2820000 -17.2090000 -12.4470000
  -8.2800000 -16.8820000 -11.3600000  -8.4690000 -17.0040000 -12.2040000
   1.8090000 -21.8350000 -12.3130000   2.3950000 -21.5220000 -11.6240000
   1.0830000 -21.2100000 -12.3130000   1.7910000 -21.7150000 -12.2250000
  -3.4570000 -11.6690000 -18.1640000  -3.7180000 -12.0440000 -17.3230000
  -2.7270000 -12.2140000 -18.4530000  -3.3970000 -11.7870000 -18.0940000
  -2.5960000 -20.7590000 -17.8360000  -1.7150000 -20.4670000 -17.6040000
  -2.5100000 -21.0930000 -18.7290000  -2.4720000 -20.7640000 -17.9210000
  -8.7020000 -14.2960000 -10.5020000  -9.4650000 -13.7280000 -10.6190000
  -8.4980000 -14.6060000 -11.3840000  -8.7750000 -14.2630000 -10.6300000
  -6.6320000 -13.0010000  -9.1650000  -6.1480000 -12.4400000  -9.7720000
  -7.0740000 -13.6370000  -9.7260000  -6.6260000 -13.0100000  -9.3140000
  -3.0050000 -11.2650000 -10.3670000  -2.4310000 -11.3520000  -9.6060000
  -3.0470000 -10.3230000 -10.5290000  -2.9370000 -11.1560000 -10.2910000
   6.8300000 -16.9320000 -17.5300000   7.2700000 -16.4250000 -16.8470000
   6.1580000 -17.4290000 -17.0640000   6.8010000 -16.9310000 -17.3830000
   8.0450000 -15.1640000 -15.3020000   7.3310000 -14.5590000 -15.5010000
   8.7610000 -14.6010000 -15.0050000   8.0460000 -15.0150000 -15.2890000
  -2.6500000 -17.4110000 -10.4660000  -2.8070000 -18.3550000 -10.5020000
  -2.7390000 -17.1190000 -11.3730000  -2.6820000 -17.4950000 -10.5870000
   4.6670000 -18.4300000 -16.6100000   3.7920000 -18.6870000 -16.9000000
   5.0190000 -19.2130000 -16.1860000   4.6000000 -18.5630000 -16.5930000
  -5.6240000 -11.5140000 -11.4520000  -5.8770000 -10.6100000 -11.2610000
  -4.7190000 -11.5790000 -11.1490000  -5.5400000 -11.4060000 -11.3890000
   2.1380000 -13.9060000 -11.6770000   2.7200000 -14.0700000 -10.9360000
   1.5450000 -13.2190000 -11.3690000   2.1360000 -13.8390000 -11.5430000
  -1.5600000 -13.4420000 -18.9380000  -2.0400000 -14.2500000 -18.7610000
  -0.8300000 -13.4560000 -18.3190000  -1.5280000 -13.5470000 -18.8360000
  -2.0170000 -20.9410000 -14.5510000  -2.8620000 -21.2610000 -14.2340000
  -1.5440000 -21.7320000 -14.8100000  -2.0650000 -21.0830000 -14.5430000
  -5.0900000 -15.7550000 -10.2170000  -4.2790000 -16.2430000 -10.3590000
  -5.3590000 -15.4780000 -11.0930000  -5.0210000 -15.7820000 -10.3480000
  -2.8280000 -16.7150000 -13.1890000  -1.9480000 -17.0880000 -13.2410000
  -3.3660000 -17.2960000 -13.7260000  -2.7840000 -16.8370000 -13.2640000
   6.1610000 -13.0040000 -14.8320000   5.8100000 -13.1070000 -13.9470000
   6.3090000 -12.0620000 -14.9220000   6.1350000 -12.8970000 -14.7300000
   8.2980000 -11.2360000 -12.9530000   8.4960000 -11.6320000 -12.1030000
   7.6270000 -10.5820000 -12.7620000   8.2370000 -11.2040000 -12.8200000
   3.6160000 -18.4580000 -13.5400000   3.0590000 -18.8520000 -14.2120000
   3.0400000 -17.8480000 -13.0800000   3.4710000 -18.4300000 -13.5670000
   7.5300000 -19.1970000 -10.3460000   6.7070000 -18.8570000 -10.6950000
   7.3860000 -19.2530000  -9.4010000   7.4070000 -19.1610000 -10.2700000
  -5.5450000 -18.8800000 -15.9140000  -5.9230000 -19.0070000 -15.0440000
  -6.1080000 -19.3910000 -16.4960000  -5.6650000 -18.9610000 -15.8770000
   2.1020000 -10.2810000 -14.6690000   1.5530000 -10.3500000 -15.4490000
   2.4660000 -11.1580000 -14.5530000   2.0790000 -10.4020000 -14.7540000
  -3.4640000 -20.2860000 -10.7180000  -3.5790000 -20.5700000 -11.6250000
  -4.3560000 -20.1830000 -10.3850000  -3.5930000 -20.3090000 -10.7920000
  -3.0340000 -15.7670000 -17.8400000  -3.0750000 -16.7220000 -17.8770000
  -3.4890000 -15.5390000 -17.0300000  -3.0980000 -15.8600000 -17.7410000
   4.9310000 -19.1140000 -11.1580000   4.2400000 -19.7540000 -10.9900000
   4.7230000 -18.7580000 -12.0210000   4.8160000 -19.1510000 -11.2470000
   0.8090000 -13.1560000 -17.4300000   0.7450000 -13.6760000 -16.6280000
   1.3540000 -12.4070000 -17.1870000   0.8700000 -13.1260000 -17.2960000
  -7.3790000 -10.0680000 -19.6510000  -7.9210000  -9.6450000 -18.9840000
  -6.4810000  -9.8710000 -19.3890000  -7.3350000  -9.9880000 -19.5320000
  -5.8380000 -16.0030000 -12.7310000  -5.8770000 -15.6860000 -13.6330000
  -6.7110000 -16.3620000 -12.5660000  -5.9560000 -16.0090000 -12.8250000
  -1.9300000 -14.2630000 -14.1560000  -2.7130000 -13.8570000 -14.5250000
  -2.2180000 -15.1340000 -13.8830000  -2.0670000 -14.3230000 -14.1680000
  -8.1920000 -12.2510000 -17.4130000  -7.5370000 -11.8900000 -18.0100000
  -8.8710000 -12.6060000 -17.9880000  -8.1950000 -12.2500000 -17.5630000
  -2.9040000 -18.3060000 -15.6770000  -2.5790000 -19.1090000 -15.2700000
  -3.7730000 -18.5380000 -16.0030000  -2.9740000 -18.4380000 -15.6670000
  -7.2880000 -17.3720000  -9.7080000  -6.4860000 -16.8620000  -9.8180000
  -7.7380000 -16.9540000  -8.9740000  -7.2430000 -17.2530000  -9.6280000
   7.8960000  -9.4520000 -18.3800000   7.7490000 -10.3950000 -18.2990000
   8.5500000  -9.2540000 -17.7090000   7.9610000  -9.5480000 -18.2840000
   9.2290000 -13.1740000 -19.5940000   8.3850000 -12.7610000 -19.4100000
   9.0970000 -14.0960000 -19.3760000   9.1040000 -13.2390000 -19.5430000
  -6.7810000 -17.8980000 -18.8400000  -5.8230000 -17.9140000 -18.8590000
  -7.0260000 -18.7120000 -18.4000000  -6.6890000 -18.0040000 -18.7860000
   8.6880000 -18.9600000 -17.3570000   8.2990000 -19.4340000 -16.6210000
   8.1530000 -18.1710000 -17.4430000   8.5700000 -18.9200000 -17.2740000
   0.5970000 -14.5350000 -14.9920000   0.9900000 -13.7140000 -14.6960000
  -0.3160000 -14.4800000 -14.7100000   0.5310000 -14.4230000 -14.9180000
   5.8210000 -21.2510000 -15.8430000   5.5560000 -21.9030000 -15.1930000
   6.0400000 -21.7640000 -16.6210000   5.8150000 -21.4000000 -15.8590000
   3.3800000 -14.0060000 -18.6070000   3.4780000 -13.7590000 -19.5270000
   2.5260000 -13.6560000 -18.3550000   3.2830000 -13.9300000 -18.6920000
   4.4680000 -11.5800000 -18.0680000   3.9240000 -10.9800000 -18.5790000
   4.0770000 -12.4410000 -18.2140000   4.3490000 -11.6130000 -18.1520000
   8.2430000 -20.1710000 -14.4450000   7.3470000 -20.4950000 -14.5320000
   8.1430000 -19.2760000 -14.1200000   8.1150000 -20.0980000 -14.4140000
   0.0710000 -21.1030000 -17.2910000  -0.3780000 -21.8570000 -16.9090000
   0.7930000 -21.4830000 -17.7910000   0.1060000 -21.2480000 -17.3060000
   1.6060000 -16.9790000 -15.5790000   1.3300000 -16.1550000 -15.1770000
   2.5570000 -16.9920000 -15.4700000   1.6930000 -16.8750000 -15.5140000
   0.9620000  -9.7560000 -17.3300000   1.7520000  -9.2180000 -17.3840000
   0.3620000  -9.3640000 -17.9640000   0.9860000  -9.6370000 -17.4180000
  -7.0080000 -19.1310000 -13.4420000  -7.6870000 -18.4920000 -13.2220000
  -7.4170000 -19.9800000 -13.2790000  -7.1490000 -19.1580000 -13.3930000
   2.0570000 -18.6890000 -17.4930000   1.7890000 -18.0460000 -16.8360000
   1.2580000 -18.8700000 -17.9890000   1.9200000 -18.6300000 -17.4730000
  -9.4010000 -21.0510000 -10.8730000 -10.0010000 -20.3180000 -10.7320000
  -8.8550000 -21.0680000 -10.0870000  -9.4080000 -20.9590000 -10.7540000
   2.0340000 -20.3550000 -14.9310000   1.8710000 -20.0460000 -15.8220000
   1.1730000 -20.6190000 -14.6080000   1.9030000 -20.3490000 -15.0030000
   1.9660000 -16.6920000 -12.3950000   1.1480000 -16.8480000 -12.8660000
   2.0140000 -15.7400000 -12.3060000   1.8680000 -16.5900000 -12.4440000
  -7.6560000 -20.2140000 -17.6420000  -8.4350000 -19.7080000 -17.4110000
  -7.9170000 -21.1260000 -17.5190000  -7.7880000 -20.2660000 -17.5970000
   7.7890000 -10.7190000 -15.5950000   8.0710000 -10.8150000 -14.6850000
   7.0080000 -10.1680000 -15.5460000   7.7250000 -10.6610000 -15.4720000
  -4.4570000 -20.9160000 -13.3520000  -4.5480000 -21.0350000 -14.2970000
  -5.1810000 -20.3380000 -13.1140000  -4.5610000 -20.8570000 -13.4430000
  -8.1870000 -10.8520000 -15.0090000  -8.4810000 -11.1250000 -15.8790000
  -8.4960000  -9.9500000 -14.9250000  -8.2650000 -10.7720000 -15.1100000
  -4.2720000 -13.4880000 -15.6110000  -4.8430000 -12.8010000 -15.2640000
  -4.7240000 -14.3040000 -15.3970000  -4.4040000 -13.5040000 -15.5390000
   2.5860000 -12.9430000 -14.2120000   2.3830000 -13.2530000 -13.3300000
   3.1000000 -13.6510000 -14.6020000   2.6260000 -13.0740000 -14.1490000
   5.2310000 -15.3410000 -11.5650000   4.5910000 -15.8740000 -11.0930000
   5.1930000 -15.6640000 -12.4660000   5.1440000 -15.4510000 -11.6200000
  -1.0020000 -12.9730000 -11.4300000  -1.3890000 -13.3380000 -12.2260000
  -1.6500000 -12.3440000 -11.1150000  -1.1350000 -12.9400000 -11.4910000
  -8.6420000 -13.6190000 -14.0610000  -9.0250000 -12.7760000 -13.8170000
  -7.8180000 -13.3930000 -14.4920000  -8.5870000 -13.4820000 -14.0850000
   7.8980000 -17.5040000 -13.7480000   7.0070000 -17.2880000 -13.4700000
   8.1750000 -16.7510000 -14.2700000   7.8190000 -17.3800000 -13.7790000
  -7.9940000 -21.6350000 -13.1140000  -8.5610000 -21.2740000 -13.7960000
  -8.4900000 -21.5190000 -12.3040000  -8.1300000 -21.5740000 -13.0980000
   3.2520000  -8.0030000 -17.1970000   4.0270000  -8.1590000 -17.7360000
   3.2210000  -7.0520000 -17.0910000   3.3470000  -7.9010000 -17.2520000
   5.0150000 -12.1710000 -11.6610000   5.2850000 -13.0750000 -11.5010000
   4.0630000 -12.1840000 -11.5600000   4.9280000 -12.2880000 -11.6270000
   5.3250000 -16.4650000 -13.9640000   4.7150000 -17.2010000 -13.9080000
   4.8930000 -15.8410000 -14.5470000   5.1920000 -16.4800000 -14.0310000
  -5.5770000 -15.8760000 -15.5390000  -6.0380000 -15.5330000 -16.3040000
  -5.4960000 -16.8150000 -15.7110000  -5.6270000 -15.9530000 -15.6590000
   4.1800000 -14.6060000 -15.9450000   4.0070000 -14.6830000 -16.8830000
   4.9630000 -14.0590000 -15.8900000   4.2580000 -14.5460000 -16.0580000
   6.0260000  -9.6550000 -12.3350000   6.4350000  -9.4830000 -11.4870000
   5.7570000 -10.5720000 -12.2900000   6.0440000  -9.7500000 -12.2210000
   8.5330000 -12.0080000 -10.3420000   7.7610000 -11.9770000  -9.7780000
   9.1500000 -11.3980000  -9.9360000   8.5130000 -11.9260000 -10.2170000
   3.4340000 -16.8810000 -10.2730000   2.6230000 -16.8430000 -10.7800000
   3.7980000 -17.7440000 -10.4680000   3.3770000 -16.9860000 -10.3630000
  -6.9400000 -14.7410000 -17.3330000  -6.6810000 -14.0480000 -17.9410000
  -7.8120000 -14.4820000 -17.0340000  -7.0190000 -14.6190000 -17.3730000
  -0.3220000 -20.2400000 -12.4470000  -1.0760000 -20.5700000 -12.9360000
  -0.5230000 -20.4380000 -11.5330000  -0.4440000 -20.3080000 -12.3930000
   3.2280000 -20.9170000 -10.3780000   2.4440000 -20.9560000  -9.8300000
   3.8650000 -21.4680000  -9.9240000   3.2090000 -20.9920000 -10.2500000
   4.6230000 -22.3940000 -13.1750000   5.3160000 -22.2000000 -12.5430000
   3.9870000 -21.6880000 -13.0570000   4.6300000 -22.2790000 -13.0790000
   5.0880000 -10.1240000 -15.7000000   4.6150000  -9.2910000 -15.7070000
   4.5570000 -10.7050000 -16.2440000   4.9590000 -10.0920000 -15.7700000
 -17.4200000  21.8400000  15.7370000 -17.8450000  21.2330000  15.1330000
 -18.0830000  22.5070000  15.9150000 -17.5590000  21.8480000  15.6830000
 -11.6670000  12.4720000  14.9900000 -11.5990000  11.5250000  14.8660000
 -10.7990000  12.7370000  15.2910000 -11.5480000  12.3850000  15.0130000
 -10.5490000  16.7630000  16.8310000 -11.3280000  16.8730000  17.3760000
 -10.2040000  17.6490000  16.7220000 -10.6040000  16.8900000  16.8870000
 -19.4520000  12.8910000  10.9790000 -19.7190000  12.4280000  11.7740000
 -19.4370000  12.2140000  10.3030000 -19.4850000  12.7450000  10.9950000
 -16.3410000  21.0310000  11.2820000 -15.5710000  21.0520000  11.8490000
 -16.0230000  20.6640000  10.4580000 -16.2020000  20.9870000  11.2490000
 -10.6060000  20.6680000  13.0120000 -10.9710000  21.3090000  13.6220000
 -11.3710000  20.2450000  12.6200000 -10.7510000  20.6960000  13.0400000
 -12.2800000  12.6980000  12.1170000 -12.1490000  12.5540000  13.0540000
 -13.1490000  13.0970000  12.0570000 -12.3740000  12.7300000  12.2300000
 -19.4320000  16.4010000  14.9390000 -20.2570000  16.3830000  14.4540000
 -19.6830000  16.2150000  15.8440000 -19.5700000  16.3750000  14.9930000
 -17.1600000  12.7950000  18.0680000 -18.1120000  12.7320000  18.1390000
 -16.8320000  12.0670000  18.5960000 -17.2400000  12.6940000  18.1450000
 -14.6800000  14.1200000  11.9320000 -14.5760000  14.4640000  12.8190000
 -14.8100000  14.8960000  11.3870000 -14.6840000  14.2630000  11.9760000
 -12.0390000  14.9680000  19.2590000 -11.1260000  14.9790000  19.5520000
 -12.0390000  14.3830000  18.5010000 -11.9210000  14.8940000  19.2000000
 -19.8490000  15.8050000  17.5730000 -19.7630000  15.0210000  18.1160000
 -19.4090000  16.4920000  18.0730000 -19.7810000  15.7930000  17.7060000
 -12.7520000   9.9440000  11.7870000 -12.6240000  10.8590000  11.5350000
 -13.7010000   9.8490000  11.8720000 -12.8580000  10.0490000  11.7660000
  -9.5770000  11.2820000   9.7880000  -9.7540000  12.1230000   9.3670000
 -10.3860000  10.7830000   9.6740000  -9.7030000  11.3260000   9.7200000
  -7.0080000  17.2100000  17.1660000  -6.9940000  16.8970000  18.0710000
  -7.0570000  18.1630000  17.2430000  -7.0130000  17.2920000  17.2920000
 -17.6150000  15.1460000  11.0490000 -18.2420000  14.4220000  11.0730000
 -17.3970000  15.3050000  11.9670000 -17.6670000  15.0740000  11.1690000
 -11.4440000  18.1110000  11.0500000 -11.9000000  17.8700000  11.8560000
 -10.5170000  17.9710000  11.2490000 -11.3840000  18.0620000  11.1790000
 -13.3180000  13.8280000  16.6380000 -12.6230000  13.4420000  16.1050000
 -13.9290000  13.1060000  16.7930000 -13.3080000  13.6860000  16.5890000
 -17.4170000  15.2640000  13.7130000 -18.2400000  15.5470000  14.1090000
 -16.7400000  15.6500000  14.2680000 -17.4350000  15.3490000  13.8350000
 -15.3990000  20.3650000  17.2610000 -14.8540000  20.8660000  17.8680000
 -16.0920000  20.9720000  17.0040000 -15.4170000  20.5060000  17.3060000
 -12.6940000  17.6110000  13.4540000 -12.7370000  18.2300000  14.1840000
 -13.0600000  16.8000000  13.8060000 -12.7460000  17.5870000  13.5930000
 -17.9450000  18.4750000  13.9330000 -18.6170000  17.7940000  13.9630000
 -17.8650000  18.6920000  13.0040000 -18.0200000  18.4160000  13.8180000
 -16.5050000  12.9230000  15.2080000 -16.8000000  13.6380000  14.6440000
 -16.7770000  13.1840000  16.0880000 -16.5770000  13.0480000  15.2480000
 -13.5920000  16.2960000  10.1590000 -13.1140000  15.9430000   9.4100000
 -13.0900000  17.0680000  10.4220000 -13.4670000  16.3500000  10.0970000
 -15.6520000  17.5110000  17.2720000 -15.1540000  17.3040000  16.4810000
 -15.4690000  18.4360000  17.4360000 -15.5650000  17.6020000  17.1920000
 -18.3320000  18.1070000  17.8950000 -18.7390000  18.8670000  17.4790000
 -17.4700000  18.0420000  17.4850000 -18.2740000  18.1960000  17.7890000
 -13.7940000  19.3460000  15.3770000 -13.1200000  19.7580000  15.9170000
 -14.6040000  19.7920000  15.6230000 -13.8110000  19.4560000  15.4770000
 -16.7980000  15.3230000  19.2290000 -16.1730000  15.7730000  18.6620000
 -16.9400000  14.4760000  18.8050000 -16.7370000  15.2720000  19.1020000
 -16.7750000  12.0680000  11.9850000 -17.5340000  12.3160000  11.4570000
 -16.2190000  12.8480000  11.9860000 -16.8010000  12.2000000  11.9180000
 -14.6520000  11.2520000  16.4980000 -15.3140000  11.6580000  15.9380000
 -13.9580000  10.9890000  15.8950000 -14.6490000  11.2710000  16.3490000
 -18.4210000  19.2510000  11.3130000 -17.6910000  19.8700000  11.3020000
 -19.2030000  19.8020000  11.2820000 -18.4290000  19.4010000  11.3070000
 -19.5480000  13.2780000  16.0910000 -20.4000000  13.1400000  15.6790000
 -19.4980000  14.2250000  16.2270000 -19.6500000  13.3820000  16.0560000
 -18.5020000  16.9490000   9.3300000 -18.5220000  17.5990000  10.0320000
 -18.1470000  16.1610000   9.7420000 -18.4600000  16.9320000   9.4720000
 -18.8300000  11.4520000  14.1820000 -19.0540000  12.2370000  14.6810000
 -17.9300000  11.6040000  13.8900000 -18.7430000  11.5720000  14.2090000
 -13.4020000  11.1720000  19.0520000 -12.5310000  10.7790000  19.1090000
 -13.5010000  11.4030000  18.1290000 -13.3040000  11.1510000  18.9410000
 -13.3770000  15.0370000  14.3000000 -13.5990000  14.7870000  15.1980000
 -12.5610000  14.5710000  14.1170000 -13.3010000  14.9450000  14.3920000
 -10.6860000  15.0610000  12.1360000 -11.5100000  14.5740000  12.0880000
 -10.9380000  15.9250000  12.4640000 -10.8240000  15.1090000  12.1720000
 -15.5740000  17.0500000  14.7210000 -14.9530000  17.4940000  14.1420000
 -16.3840000  17.5540000  14.6360000 -15.5980000  17.1720000  14.6360000
 -19.8620000  19.5130000  16.0940000 -19.3490000  18.9130000  15.5540000
 -20.1370000  20.2030000  15.4900000 -19.8330000  19.5240000  15.9480000
  -9.8050000  14.0780000  16.1390000  -9.2240000  14.5630000  15.5530000
 -10.3710000  14.7480000  16.5220000  -9.8030000  14.2260000  16.1130000
 -12.1120000  20.5840000  17.3680000 -11.2600000  20.2430000  17.0980000
 -12.0910000  20.5550000  18.3240000 -12.0010000  20.5360000  17.4550000
 -10.0360000  10.6100000  16.8760000 -10.6330000  10.2600000  17.5380000
  -9.3190000   9.9780000  16.8410000 -10.0200000  10.4850000  16.9560000
 -13.9660000  21.2550000  12.5830000 -13.5700000  21.5960000  13.3850000
 -13.4760000  21.6740000  11.8760000 -13.8540000  21.3520000  12.5950000
 -19.5310000  14.0180000   3.3630000 -20.1340000  13.3760000   3.7380000
 -18.7420000  13.9490000   3.9010000 -19.5070000  13.9280000   3.4800000
 -18.9930000  10.4550000   9.6410000 -18.1010000  10.2260000   9.3770000
 -19.5150000  10.3340000   8.8480000 -18.9450000  10.4110000   9.5060000
 -17.1080000  13.8440000   4.6310000 -16.9290000  12.9620000   4.9570000
 -16.7890000  14.4240000   5.3230000 -17.0430000  13.8050000   4.7620000
 -17.4200000  21.8400000  -3.1230000 -17.8450000  21.2330000  -3.7270000
 -18.0830000  22.5070000  -2.9450000 -17.5590000  21.8480000  -3.1770000
 -11.6670000  12.4720000  -3.8700000 -11.5990000  11.5250000  -3.9940000
 -10.7990000  12.7370000  -3.5690000 -11.5480000  12.3850000  -3.8470000
 -10.5490000  16.7630000  -2.0290000 -11.3280000  16.8730000  -1.4840000
 -10.2040000  17.6490000  -2.1380000 -10.6040000  16.8900000  -1.9730000
 -19.4520000  12.8910000  -7.8810000 -19.7190000  12.4280000  -7.0860000
 -19.4370000  12.2140000  -8.5570000 -19.4850000  12.7450000  -7.8650000
 -19.2170000  20.0790000   5.4030000 -19.3450000  19.2140000   5.7920000
 -18.7750000  19.9040000   4.5720000 -19.1770000  19.9460000   5.3460000
 -16.3410000  21.0310000  -7.5780000 -15.5710000  21.0520000  -7.0110000
 -16.0230000  20.6640000  -8.4020000 -16.2020000  20.9870000  -7.6110000
 -10.6060000  20.6680000  -5.8480000 -10.9710000  21.3090000  -5.2380000
 -11.3710000  20.2450000  -6.2400000 -10.7510000  20.6960000  -5.8200000
 -12.6240000  22.2680000  -8.8310000 -12.5810000  22.1340000  -9.7780000
 -11.7370000  22.5350000  -8.5880000 -12.5040000  22.2850000  -8.9210000
 -12.2800000  12.6980000  -6.7430000 -12.1490000  12.5540000  -5.8060000
 -13.1490000  13.0970000  -6.8030000 -12.3740000  12.7300000  -6.6300000
 -17.0520000  15.9000000   6.5470000 -16.4650000  16.2130000   7.2360000
 -17.7780000  16.5250000   6.5470000 -17.0700000  16.0190000   6.6350000
 -19.4320000  16.4010000  -3.9210000 -20.2570000  16.3830000  -4.4060000
 -19.6830000  16.2150000  -3.0160000 -19.5700000  16.3750000  -3.8670000
 -17.1600000  12.7950000  -0.7920000 -18.1120000  12.7320000  -0.7210000
 -16.8320000  12.0670000  -0.2640000 -17.2400000  12.6940000  -0.7150000
 -12.0300000  20.8030000   1.3300000 -11.5910000  21.3100000   2.0130000
 -12.7030000  20.3060000   1.7960000 -12.0590000  20.8040000   1.4770000
 -14.6800000  14.1200000  -6.9280000 -14.5760000  14.4640000  -6.0410000
 -14.8100000  14.8960000  -7.4730000 -14.6840000  14.2630000  -6.8840000
 -12.0390000  14.9680000   0.3990000 -11.1260000  14.9790000   0.6920000
 -12.0390000  14.3830000  -0.3590000 -11.9210000  14.8940000   0.3400000
 -14.1930000  19.3050000   2.2500000 -15.0680000  19.0480000   1.9600000
 -13.8410000  18.5220000   2.6740000 -14.2610000  19.1720000   2.2670000
 -19.8490000  15.8050000  -1.2870000 -19.7630000  15.0210000  -0.7440000
 -19.4090000  16.4920000  -0.7870000 -19.7810000  15.7930000  -1.1540000
 -11.1860000  13.4230000   8.0530000 -12.0860000  13.0940000   8.0480000
 -10.8610000  13.2450000   7.1710000 -11.2610000  13.3580000   7.9400000
 -12.7520000   9.9440000  -7.0730000 -12.6240000  10.8590000  -7.3250000
 -13.7010000   9.8490000  -6.9880000 -12.8580000  10.0490000  -7.0940000
  -9.5770000  11.2820000  -9.0720000  -9.7540000  12.1230000  -9.4930000
 -10.3860000  10.7830000  -9.1860000  -9.7030000  11.3260000  -9.1400000
  -7.0080000  17.2100000  -1.6940000  -6.9940000  16.8970000  -0.7890000
  -7.0570000  18.1630000  -1.6170000  -7.0130000  17.2920000  -1.5680000
 -17.6150000  15.1460000  -7.8110000 -18.2420000  14.4220000  -7.7870000
 -17.3970000  15.3050000  -6.8930000 -17.6670000  15.0740000  -7.6910000
 -11.1500000  12.6610000   5.4840000 -12.0160000  12.4970000   5.1130000
 -10.5670000  12.0690000   5.0060000 -11.1850000  12.5640000   5.3750000
 -11.4440000  18.1110000  -7.8100000 -11.9000000  17.8700000  -7.0040000
 -10.5170000  17.9710000  -7.6110000 -11.3840000  18.0620000  -7.6810000
 -13.3180000  13.8280000  -2.2220000 -12.6230000  13.4420000  -2.7550000
 -13.9290000  13.1060000  -2.0670000 -13.3080000  13.6860000  -2.2710000
 -15.2440000  19.2770000   5.3200000 -15.8010000  18.8830000   4.6480000
 -15.8200000  19.8870000   5.7800000 -15.3890000  19.3050000   5.2930000
 -11.3310000  18.5380000   8.5140000 -12.1530000  18.8780000   8.1650000
 -11.4740000  18.4820000   9.4590000 -11.4540000  18.5740000   8.5900000
 -17.4170000  15.2640000  -5.1470000 -18.2400000  15.5470000  -4.7510000
 -16.7400000  15.6500000  -4.5920000 -17.4350000  15.3490000  -5.0250000
 -12.6940000  17.6110000  -5.4060000 -12.7370000  18.2300000  -4.6760000
 -13.0600000  16.8000000  -5.0540000 -12.7460000  17.5870000  -5.2670000
 -17.9450000  18.4750000  -4.9270000 -18.6170000  17.7940000  -4.8970000
 -17.8650000  18.6920000  -5.8560000 -18.0200000  18.4160000  -5.0420000
 -13.9290000  18.6200000   7.7020000 -14.6200000  17.9810000   7.8700000
 -14.1380000  18.9770000   6.8390000 -14.0440000  18.5840000   7.6130000
 -16.5050000  12.9230000  -3.6520000 -16.8000000  13.6380000  -4.2160000
 -16.7770000  13.1840000  -2.7720000 -16.5770000  13.0480000  -3.6120000
 -13.5920000  16.2960000  -8.7010000 -13.1140000  15.9430000  -9.4500000
 -13.0900000  17.0680000  -8.4380000 -13.4670000  16.3500000  -8.7630000
 -11.7400000   7.3760000   0.6980000 -11.5940000   7.7810000   1.5530000
 -12.6850000   7.4440000   0.5590000 -11.8420000   7.4360000   0.7900000
 -15.6520000  17.5110000  -1.5880000 -15.1540000  17.3040000  -2.3790000
 -15.4690000  18.4360000  -1.4240000 -15.5650000  17.6020000  -1.6680000
 -18.3320000  18.1070000  -0.9650000 -18.7390000  18.8670000  -1.3810000
 -17.4700000  18.0420000  -1.3750000 -18.2740000  18.1960000  -1.0710000
 -13.7940000  19.3460000  -3.4830000 -13.1200000  19.7580000  -2.9430000
 -14.6040000  19.7920000  -3.2370000 -13.8110000  19.4560000  -3.3830000
 -15.3380000  13.8470000   2.5590000 -15.7910000  14.2890000   1.8410000
 -15.8790000  14.0220000   3.3280000 -15.4640000  13.9260000   2.5650000
 -10.1720000  18.7750000   1.5030000 -10.5610000  18.3010000   2.2390000
 -10.7070000  19.5640000   1.4170000 -10.2900000  18.8150000   1.5860000
 -16.7980000  15.3230000   0.3690000 -16.1730000  15.7730000  -0.1980000
 -16.9400000  14.4760000  -0.0550000 -16.7370000  15.2720000   0.2420000
 -16.7750000  12.0680000  -6.8750000 -17.5340000  12.3160000  -7.4030000
 -16.2190000  12.8480000  -6.8740000 -16.8010000  12.2000000  -6.9420000
 -14.6520000  11.2520000  -2.3620000 -15.3140000  11.6580000  -2.9220000
 -13.9580000  10.9890000  -2.9650000 -14.6490000  11.2710000  -2.5110000
 -13.0390000  16.4840000   3.0170000 -13.3040000  15.8320000   3.6670000
 -12.8200000  15.9710000   2.2390000 -13.0450000  16.3350000   3.0010000
 -11.9860000  10.0130000   9.2170000 -12.5270000   9.4980000   9.8150000
 -12.4500000  10.8460000   9.1300000 -12.1150000  10.0540000   9.2830000
 -10.6170000  17.5640000   4.4150000 -11.5140000  17.2390000   4.3280000
 -10.7180000  18.4590000   4.7400000 -10.7450000  17.6370000   4.4460000
 -18.4210000  19.2510000  -7.5470000 -17.6910000  19.8700000  -7.5580000
 -19.2030000  19.8020000  -7.5780000 -18.4290000  19.4010000  -7.5530000
 -18.7900000  16.6320000   1.5690000 -19.2390000  15.8780000   1.9510000
 -18.0670000  16.2510000   1.0690000 -18.7550000  16.4870000   1.5540000
 -17.2550000  20.7560000   3.2810000 -17.5310000  21.5800000   3.6830000
 -16.3040000  20.7430000   3.3900000 -17.1670000  20.8600000   3.3460000
 -18.1150000  13.7130000   7.9710000 -18.5820000  14.3110000   8.5550000
 -17.5200000  14.2770000   7.4760000 -18.1000000  13.8610000   7.9820000
 -16.8040000  19.0460000   1.3670000 -17.0710000  19.6890000   2.0240000
 -17.6020000  18.8640000   0.8710000 -16.9400000  19.1050000   1.3870000
 -16.8270000  17.3800000   3.9290000 -16.9900000  17.6890000   3.0380000
 -17.6880000  17.1160000   4.2520000 -16.9580000  17.3860000   3.8570000
 -16.6050000  11.6010000   8.0670000 -16.6080000  11.3110000   7.1550000
 -17.2770000  12.2820000   8.1040000 -16.6910000  11.6510000   7.9550000
 -16.8940000  21.0430000   6.4650000 -17.7130000  20.8870000   5.9940000
 -16.8460000  21.9950000   6.5540000 -16.9930000  21.1450000   6.4160000
 -12.5440000  15.7390000   7.6960000 -11.8310000  15.1070000   7.7910000
 -12.1040000  16.5760000   7.5500000 -12.3970000  15.7650000   7.6890000
 -19.5480000  13.2780000  -2.7690000 -20.4000000  13.1400000  -3.1810000
 -19.4980000  14.2250000  -2.6330000 -19.6500000  13.3820000  -2.8040000
 -18.5020000  16.9490000  -9.5300000 -18.5220000  17.5990000  -8.8280000
 -18.1470000  16.1610000  -9.1180000 -18.4600000  16.9320000  -9.3880000
 -13.5190000  12.1990000   7.8910000 -13.4590000  11.8520000   7.0010000
 -14.4590000  12.2470000   8.0650000 -13.6330000  12.1610000   7.7990000
 -18.8300000  11.4520000  -4.6780000 -19.0540000  12.2370000  -4.1790000
 -17.9300000  11.6040000  -4.9700000 -18.7430000  11.5720000  -4.6510000
 -13.4020000  11.1720000   0.1920000 -12.5310000  10.7790000   0.2490000
 -13.5010000  11.4030000  -0.7310000 -13.3040000  11.1510000   0.0810000
 -16.4950000  11.4390000   5.3260000 -16.7540000  10.6630000   4.8290000
 -15.5390000  11.4440000   5.2780000 -16.4060000  11.3400000   5.2560000
 -13.3770000  15.0370000  -4.5600000 -13.5990000  14.7870000  -3.6620000
 -12.5610000  14.5710000  -4.7430000 -13.3010000  14.9450000  -4.4680000
 -19.5750000  13.5870000   0.6070000 -20.4260000  13.1560000   0.5200000
 -19.4760000  13.7340000   1.5480000 -19.6710000  13.5510000   0.7160000
 -10.6860000  15.0610000  -6.7240000 -11.5100000  14.5740000  -6.7720000
 -10.9380000  15.9250000  -6.3960000 -10.8240000  15.1090000  -6.6880000
 -13.6290000  22.3940000   7.2950000 -14.2690000  21.8610000   7.7670000
 -13.6670000  22.0710000   6.3940000 -13.7160000  22.2840000   7.2400000
 -10.9620000  20.2310000   5.1120000 -11.8540000  20.4470000   5.3900000
 -10.6860000  20.9840000   4.5900000 -11.0410000  20.3550000   5.0810000
 -13.5360000  21.2700000   4.8960000 -14.1450000  20.5340000   4.9520000
 -13.9670000  21.8940000   4.3130000 -13.6680000  21.2550000   4.8290000
 -15.5740000  17.0500000  -4.1390000 -14.9530000  17.4940000  -4.7180000
 -16.3840000  17.5540000  -4.2240000 -15.5980000  17.1720000  -4.2240000
 -19.8620000  19.5130000  -2.7660000 -19.3490000  18.9130000  -3.3060000
 -20.1370000  20.2030000  -3.3700000 -19.8330000  19.5240000  -2.9120000
 -13.8200000  12.7420000   4.7930000 -14.1080000  13.5680000   5.1840000
 -14.0430000  12.8260000   3.8660000 -13.8860000  12.8590000   4.7250000
  -9.8050000  14.0780000  -2.7210000  -9.2240000  14.5630000  -3.3070000
 -10.3710000  14.7480000  -2.3380000  -9.8030000  14.2260000  -2.7470000
 -15.4260000  20.8540000   8.5870000 -16.2370000  20.8920000   8.0800000
 -15.0620000  19.9910000   8.3920000 -15.4840000  20.7490000   8.4970000
 -12.1120000  20.5840000  -1.4920000 -11.2600000  20.2430000  -1.7620000
 -12.0910000  20.5550000  -0.5360000 -12.0010000  20.5360000  -1.4050000
 -19.1830000  17.4950000   6.4130000 -19.9370000  17.1650000   5.9240000
 -19.3840000  17.2970000   7.3270000 -19.3040000  17.4270000   6.4670000
 -15.6330000  16.8180000   8.4820000 -16.4170000  16.7790000   9.0300000
 -14.9950000  16.2670000   8.9360000 -15.6510000  16.7430000   8.6100000
 -10.0360000  10.6100000  -1.9840000 -10.6330000  10.2600000  -1.3220000
  -9.3190000   9.9780000  -2.0190000 -10.0200000  10.4850000  -1.9040000
 -13.9660000  21.2550000  -6.2770000 -13.5700000  21.5960000  -5.4750000
 -13.4760000  21.6740000  -6.9840000 -13.8540000  21.3520000  -6.2650000
 -14.2380000  15.3410000   5.6850000 -13.5440000  15.5350000   6.3170000
 -14.8740000  16.0470000   5.8030000 -14.2310000  15.4560000   5.7810000
 -19.5310000  14.0180000 -15.4970000 -20.1340000  13.3760000 -15.1220000
 -18.7420000  13.9490000 -14.9590000 -19.5070000  13.9280000 -15.3800000
 -18.9930000  10.4550000  -9.2190000 -18.1010000  10.2260000  -9.4830000
 -19.5150000  10.3340000 -10.0120000 -18.9450000  10.4110000  -9.3540000
 -17.1080000  13.8440000 -14.2290000 -16.9290000  12.9620000 -13.9030000
 -16.7890000  14.4240000 -13.5370000 -17.0430000  13.8050000 -14.0980000
 -19.2170000  20.0790000 -13.4570000 -19.3450000  19.2140000 -13.0680000
 -18.7750000  19.9040000 -14.2880000 -19.1770000  19.9460000 -13.5140000
 -17.0520000  15.9000000 -12.3130000 -16.4650000  16.2130000 -11.6240000
 -17.7780000  16.5250000 -12.3130000 -17.0700000  16.0190000 -12.2250000
 -17.1600000  12.7950000 -19.6520000 -18.1120000  12.7320000 -19.5810000
 -16.8320000  12.0670000 -19.1240000 -17.2400000  12.6940000 -19.5750000
 -12.0300000  20.8030000 -17.5300000 -11.5910000  21.3100000 -16.8470000
 -12.7030000  20.3060000 -17.0640000 -12.0590000  20.8040000 -17.3830000
 -12.0390000  14.9680000 -18.4610000 -11.1260000  14.9790000 -18.1680000
 -12.0390000  14.3830000 -19.2190000 -11.9210000  14.8940000 -18.5200000
 -14.1930000  19.3050000 -16.6100000 -15.0680000  19.0480000 -16.9000000
 -13.8410000  18.5220000 -16.1860000 -14.2610000  19.1720000 -16.5930000
 -11.1860000  13.4230000 -10.8070000 -12.0860000  13.0940000 -10.8120000
 -10.8610000  13.2450000 -11.6890000 -11.2610000  13.3580000 -10.9200000
 -11.1500000  12.6610000 -13.3760000 -12.0160000  12.4970000 -13.7470000
 -10.5670000  12.0690000 -13.8540000 -11.1850000  12.5640000 -13.4850000
 -15.2440000  19.2770000 -13.5400000 -15.8010000  18.8830000 -14.2120000
 -15.8200000  19.8870000 -13.0800000 -15.3890000  19.3050000 -13.5670000
 -11.3310000  18.5380000 -10.3460000 -12.1530000  18.8780000 -10.6950000
 -11.4740000  18.4820000  -9.4010000 -11.4540000  18.5740000 -10.2700000
 -13.9290000  18.6200000 -11.1580000 -14.6200000  17.9810000 -10.9900000
 -14.1380000  18.9770000 -12.0210000 -14.0440000  18.5840000 -11.2470000
 -11.7400000   7.3760000 -18.1620000 -11.5940000   7.7810000 -17.3070000
 -12.6850000   7.4440000 -18.3010000 -11.8420000   7.4360000 -18.0700000
 -15.3380000  13.8470000 -16.3010000 -15.7910000  14.2890000 -17.0190000
 -15.8790000  14.0220000 -15.5320000 -15.4640000  13.9260000 -16.2950000
 -10.1720000  18.7750000 -17.3570000 -10.5610000  18.3010000 -16.6210000
 -10.7070000  19.5640000 -17.4430000 -10.2900000  18.8150000 -17.2740000
 -16.7980000  15.3230000 -18.4910000 -16.1730000  15.7730000 -19.0580000
 -16.9400000  14.4760000 -18.9150000 -16.7370000  15.2720000 -18.6180000
 -13.0390000  16.4840000 -15.8430000 -13.3040000  15.8320000 -15.1930000
 -12.8200000  15.9710000 -16.6210000 -13.0450000  16.3350000 -15.8590000
 -11.9860000  10.0130000  -9.6430000 -12.5270000   9.4980000  -9.0450000
 -12.4500000  10.8460000  -9.7300000 -12.1150000  10.0540000  -9.5770000
 -10.6170000  17.5640000 -14.4450000 -11.5140000  17.2390000 -14.5320000
 -10.7180000  18.4590000 -14.1200000 -10.7450000  17.6370000 -14.4140000
 -18.7900000  16.6320000 -17.2910000 -19.2390000  15.8780000 -16.9090000
 -18.0670000  16.2510000 -17.7910000 -18.7550000  16.4870000 -17.3060000
 -17.2550000  20.7560000 -15.5790000 -17.5310000  21.5800000 -15.1770000
 -16.3040000  20.7430000 -15.4700000 -17.1670000  20.8600000 -15.5140000
 -18.1150000  13.7130000 -10.8890000 -18.5820000  14.3110000 -10.3050000
 -17.5200000  14.2770000 -11.3840000 -18.1000000  13.8610000 -10.8780000
 -16.8040000  19.0460000 -17.4930000 -17.0710000  19.6890000 -16.8360000
 -17.6020000  18.8640000 -17.9890000 -16.9400000  19.1050000 -17.4730000
 -16.8270000  17.3800000 -14.9310000 -16.9900000  17.6890000 -15.8220000
 -17.6880000  17.1160000 -14.6080000 -16.9580000  17.3860000 -15.0030000
 -16.6050000  11.6010000 -10.7930000 -16.6080000  11.3110000 -11.7050000
 -17.2770000  12.2820000 -10.7560000 -16.6910000  11.6510000 -10.9050000
 -16.8940000  21.0430000 -12.3950000 -17.7130000  20.8870000 -12.8660000
 -16.8460000  21.9950000 -12.3060000 -16.9930000  21.1450000 -12.4440000
 -12.5440000  15.7390000 -11.1640000 -11.8310000  15.1070000 -11.0690000
 -12.1040000  16.5760000 -11.3100000 -12.3970000  15.7650000 -11.1710000
 -13.5190000  12.1990000 -10.9690000 -13.4590000  11.8520000 -11.8590000
 -14.4590000  12.2470000 -10.7950000 -13.6330000  12.1610000 -11.0610000
 -13.4020000  11.1720000 -18.6680000 -12.5310000  10.7790000 -18.6110000
 -13.5010000  11.4030000 -19.5910000 -13.3040000  11.1510000 -18.7790000
 -16.4950000  11.4390000 -13.5340000 -16.7540000  10.6630000 -14.0310000
 -15.5390000  11.4440000 -13.5820000 -16.4060000  11.3400000 -13.6040000
 -19.5750000  13.5870000 -18.2530000 -20.4260000  13.1560000 -18.3400000
 -19.4760000  13.7340000 -17.3120000 -19.6710000  13.5510000 -18.1440000
 -13.6290000  22.3940000 -11.5650000 -14.2690000  21.8610000 -11.0930000
 -13.6670000  22.0710000 -12.4660000 -13.7160000  22.2840000 -11.6200000
 -10.9620000  20.2310000 -13.7480000 -11.8540000  20.4470000 -13.4700000
 -10.6860000  20.9840000 -14.2700000 -11.0410000  20.3550000 -13.7790000
 -13.5360000  21.2700000 -13.9640000 -14.1450000  20.5340000 -13.9080000
 -13.9670000  21.8940000 -14.5470000 -13.6680000  21.2550000 -14.0310000
 -13.8200000  12.7420000 -14.0670000 -14.1080000  13.5680000 -13.6760000
 -14.0430000  12.8260000 -14.9940000 -13.8860000  12.8590000 -14.1350000
 -15.4260000  20.8540000 -10.2730000 -16.2370000  20.8920000 -10.7800000
 -15.0620000  19.9910000 -10.4680000 -15.4840000  20.7490000 -10.3630000
 -19.1830000  17.4950000 -12.4470000 -19.9370000  17.1650000 -12.9360000
 -19.3840000  17.2970000 -11.5330000 -19.3040000  17.4270000 -12.3930000
 -15.6330000  16.8180000 -10.3780000 -16.4170000  16.7790000  -9.8300000
 -14.9950000  16.2670000  -9.9240000 -15.6510000  16.7430000 -10.2500000
 -14.2380000  15.3410000 -13.1750000 -13.5440000  15.5350000 -12.5430000
 -14.8740000  16.0470000 -13.0570000 -14.2310000  15.4560000 -13.0790000
 -19.4960000   5.0450000  16.2870000 -19.6700000   5.2060000  17.2150000
 -20.2620000   4.5590000  15.9810000 -19.6170000   5.0030000  16.3670000
 -12.7640000   6.1010000   9.8040000 -13.6260000   6.4290000   9.5480000
 -12.8610000   5.1490000   9.8030000 -12.8880000   6.0210000   9.7710000
 -17.4200000   2.9730000  15.7370000 -17.8450000   2.3660000  15.1330000
 -18.0830000   3.6400000  15.9150000 -17.5590000   2.9810000  15.6830000
 -11.6670000  -6.3960000  14.9900000 -11.5990000  -7.3430000  14.8660000
 -10.7990000  -6.1300000  15.2910000 -11.5480000  -6.4820000  15.0130000
 -10.5490000  -2.1040000  16.8310000 -11.3280000  -1.9940000  17.3760000
 -10.2040000  -1.2180000  16.7220000 -10.6040000  -1.9770000  16.8870000
 -19.4520000  -5.9760000  10.9790000 -19.7190000  -6.4390000  11.7740000
 -19.4370000  -6.6530000  10.3030000 -19.4850000  -6.1220000  10.9950000
 -16.3410000   2.1640000  11.2820000 -15.5710000   2.1850000  11.8490000
 -16.0230000   1.7970000  10.4580000 -16.2020000   2.1200000  11.2490000
 -10.6060000   1.8010000  13.0120000 -10.9710000   2.4420000  13.6220000
 -11.3710000   1.3790000  12.6200000 -10.7510000   1.8290000  13.0400000
 -12.6240000   3.4010000  10.0290000 -12.5810000   3.2670000   9.0820000
 -11.7370000   3.6680000  10.2720000 -12.5040000   3.4180000   9.9390000
 -12.2800000  -6.1690000  12.1170000 -12.1490000  -6.3130000  13.0540000
 -13.1490000  -5.7710000  12.0570000 -12.3740000  -6.1370000  12.2300000
 -15.6300000   5.5680000  16.6180000 -15.4540000   6.4180000  16.2150000
 -16.3900000   5.2310000  16.1440000 -15.7040000   5.6340000  16.5060000
 -15.8400000   8.8930000  17.8700000 -15.2540000   9.6300000  17.6950000
 -16.6230000   9.0790000  17.3510000 -15.8660000   9.0110000  17.7810000
 -19.4320000  -2.4660000  14.9390000 -20.2570000  -2.4850000  14.4540000
 -19.6830000  -2.6520000  15.8440000 -19.5700000  -2.4920000  14.9930000
 -20.1790000   7.6180000  10.9020000 -19.7200000   6.7960000  11.0740000
 -19.4810000   8.2580000  10.7630000 -20.0310000   7.5950000  10.9060000
 -17.1600000  -6.0720000  18.0680000 -18.1120000  -6.1360000  18.1390000
 -16.8320000  -6.8000000  18.5960000 -17.2400000  -6.1730000  18.1450000
 -17.3040000   4.7650000  11.3560000 -17.0000000   3.8720000  11.5120000
 -16.7770000   5.3050000  11.9450000 -17.1970000   4.7200000  11.4510000
 -14.6800000  -4.7470000  11.9320000 -14.5760000  -4.4040000  12.8190000
 -14.8100000  -3.9710000  11.3870000 -14.6840000  -4.6040000  11.9760000
 -12.0390000  -3.8990000  19.2590000 -11.1260000  -3.8880000  19.5520000
 -12.0390000  -4.4840000  18.5010000 -11.9210000  -3.9730000  19.2000000
 -19.8490000  -3.0620000  17.5730000 -19.7630000  -3.8460000  18.1160000
 -19.4090000  -2.3750000  18.0730000 -19.7810000  -3.0750000  17.7060000
 -11.1700000   5.6780000  12.9090000 -11.0490000   6.5530000  12.5410000
 -10.9610000   5.0840000  12.1880000 -11.1290000   5.7140000  12.7690000
 -12.7520000  -8.9240000  11.7870000 -12.6240000  -8.0080000  11.5350000
 -13.7010000  -9.0190000  11.8720000 -12.8580000  -8.8190000  11.7660000
  -9.5770000  -7.5860000   9.7880000  -9.7540000  -6.7440000   9.3670000
 -10.3860000  -8.0850000   9.6740000  -9.7030000  -7.5410000   9.7200000
  -7.0080000  -1.6570000  17.1660000  -6.9940000  -1.9700000  18.0710000
  -7.0570000  -0.7040000  17.2430000  -7.0130000  -1.5750000  17.2920000
 -17.6150000  -3.7220000  11.0490000 -18.2420000  -4.4450000  11.0730000
 -17.3970000  -3.5620000  11.9670000 -17.6670000  -3.7930000  11.1690000
 -11.4440000  -0.7560000  11.0500000 -11.9000000  -0.9970000  11.8560000
 -10.5170000  -0.8960000  11.2490000 -11.3840000  -0.8050000  11.1790000
 -13.3180000  -5.0390000  16.6380000 -12.6230000  -5.4250000  16.1050000
 -13.9290000  -5.7610000  16.7930000 -13.3080000  -5.1810000  16.5890000
 -17.4170000  -3.6030000  13.7130000 -18.2400000  -3.3200000  14.1090000
 -16.7400000  -3.2180000  14.2680000 -17.4350000  -3.5180000  13.8350000
 -15.3990000   1.4980000  17.2610000 -14.8540000   1.9990000  17.8680000
 -16.0920000   2.1050000  17.0040000 -15.4170000   1.6390000  17.3060000
 -12.6940000  -1.2560000  13.4540000 -12.7370000  -0.6370000  14.1840000
 -13.0600000  -2.0670000  13.8060000 -12.7460000  -1.2800000  13.5930000
 -17.9450000  -0.3920000  13.9330000 -18.6170000  -1.0730000  13.9630000
 -17.8650000  -0.1750000  13.0040000 -18.0200000  -0.4510000  13.8180000
 -16.5050000  -5.9440000  15.2080000 -16.8000000  -5.2290000  14.6440000
 -16.7770000  -5.6830000  16.0880000 -16.5770000  -5.8190000  15.2480000
 -12.5520000   4.6080000  16.9090000 -13.4670000   4.6180000  16.6260000
 -12.4300000   3.7400000  17.2940000 -12.6540000   4.4980000  16.9220000
 -13.5920000  -2.5720000  10.1590000 -13.1140000  -2.9250000   9.4100000
 -13.0900000  -1.7990000  10.4220000 -13.4670000  -2.5170000  10.0970000
 -15.6520000  -1.3560000  17.2720000 -15.1540000  -1.5630000  16.4810000
 -15.4690000  -0.4310000  17.4360000 -15.5650000  -1.2640000  17.1920000
  -9.6320000   5.6940000  18.1260000 -10.4750000   6.1070000  18.3100000
  -9.7640000   4.7720000  18.3440000  -9.7570000   5.6290000  18.1770000
 -18.3320000  -0.7600000  17.8950000 -18.7390000   0.0000000  17.4790000
 -17.4700000  -0.8250000  17.4850000 -18.2740000  -0.6710000  17.7890000
 -13.7940000   0.4790000  15.3770000 -13.1200000   0.8910000  15.9170000
 -14.6040000   0.9250000  15.6230000 -13.8110000   0.5890000  15.4770000
 -16.7980000  -3.5440000  19.2290000 -16.1730000  -3.0950000  18.6620000
 -16.9400000  -4.3910000  18.8050000 -16.7370000  -3.5950000  19.1020000
 -16.7750000  -6.7990000  11.9850000 -17.5340000  -6.5510000  11.4570000
 -16.2190000  -6.0190000  11.9860000 -16.8010000  -6.6670000  11.9180000
 -14.6520000  -7.6150000  16.4980000 -15.3140000  -7.2100000  15.9380000
 -13.9580000  -7.8790000  15.8950000 -14.6490000  -7.5960000  16.3490000
 -19.8440000   4.6170000  10.3850000 -19.0000000   4.5790000  10.8360000
 -19.6200000   4.8220000   9.4770000 -19.7070000   4.6380000  10.3270000
 -15.4810000   4.8620000  19.1130000 -15.3830000   5.1090000  18.1930000
 -16.3340000   5.2120000  19.3650000 -15.5770000   4.9380000  19.0280000
 -18.0900000   9.2760000  16.4520000 -18.2750000   8.4490000  16.0060000
 -18.4030000   9.9490000  15.8470000 -18.1550000   9.2560000  16.3170000
 -16.5020000   8.5110000   9.5420000 -16.3440000   9.3500000   9.1090000
 -16.2400000   8.6580000  10.4510000 -16.4490000   8.6370000   9.6030000
 -14.3920000   7.2880000  19.6520000 -14.9360000   7.8880000  19.1410000
 -14.7840000   6.4270000  19.5060000 -14.5110000   7.2550000  19.5680000
 -20.3010000   9.6560000  18.6250000 -20.3350000   8.9690000  19.2900000
 -19.8250000   9.2610000  17.8950000 -20.2450000   9.5180000  18.6170000
 -18.4210000   0.3840000  11.3130000 -17.6910000   1.0040000  11.3020000
 -19.2030000   0.9350000  11.2820000 -18.4290000   0.5340000  11.3070000
 -14.9090000   7.7420000  15.2420000 -15.2760000   8.3230000  15.9070000
 -14.0170000   8.0650000  15.1080000 -14.8410000   7.8580000  15.3100000
 -11.1500000   6.9270000  15.5600000 -11.0810000   6.2980000  16.2770000
 -11.0840000   6.3950000  14.7670000 -11.1340000   6.7790000  15.5500000
 -19.5480000  -5.5890000  16.0910000 -20.4000000  -5.7270000  15.6790000
 -19.4980000  -4.6420000  16.2270000 -19.6500000  -5.4860000  16.0560000
 -18.5020000  -1.9180000   9.3300000 -18.5220000  -1.2680000  10.0320000
 -18.1470000  -2.7070000   9.7420000 -18.4600000  -1.9350000   9.4720000
 -16.5400000   6.9610000  13.2000000 -17.2260000   6.8890000  13.8650000
 -15.7420000   7.1390000  13.6970000 -16.5270000   6.9740000  13.3490000
 -18.8300000  -7.4150000  14.1820000 -19.0540000  -6.6310000  14.6810000
 -17.9300000  -7.2630000  13.8900000 -18.7430000  -7.2950000  14.2090000
 -13.4020000  -7.6950000  19.0520000 -12.5310000  -8.0880000  19.1090000
 -13.5010000  -7.4640000  18.1290000 -13.3040000  -7.7160000  18.9410000
 -13.3770000  -3.8300000  14.3000000 -13.5990000  -4.0800000  15.1980000
 -12.5610000  -4.2960000  14.1170000 -13.3010000  -3.9220000  14.3920000
 -15.5310000   5.9330000   9.4470000 -15.9310000   6.8010000   9.4970000
 -16.0080000   5.4120000  10.0940000 -15.6440000   5.9780000   9.5360000
 -10.6860000  -3.8060000  12.1360000 -11.5100000  -4.2930000  12.0880000
 -10.9380000  -2.9420000  12.4640000 -10.8240000  -3.7580000  12.1720000
 -11.8940000   3.3860000  14.4040000 -11.8730000   3.5020000  15.3540000
 -11.7210000   4.2590000  14.0530000 -11.8690000   3.5130000  14.4810000
 -12.5190000   9.3260000  14.7110000 -12.7840000   9.2910000  13.7920000
 -11.8970000   8.6050000  14.8100000 -12.4740000   9.2290000  14.6060000
 -15.3450000   9.3220000  12.2220000 -15.8620000   8.6370000  12.6480000
 -15.8280000  10.1290000  12.3960000 -15.4740000   9.3370000  12.2990000
 -19.0390000   7.2770000  14.7520000 -19.2770000   6.4640000  15.1960000
 -19.8440000   7.5550000  14.3150000 -19.1710000   7.2090000  14.7530000
 -15.5740000  -1.8170000  14.7210000 -14.9530000  -1.3730000  14.1420000
 -16.3840000  -1.3130000  14.6360000 -15.5980000  -1.6950000  14.6360000
 -19.8620000   0.6460000  16.0940000 -19.3490000   0.0460000  15.5540000
 -20.1370000   1.3360000  15.4900000 -19.8330000   0.6570000  15.9480000
 -10.1670000   8.5050000  12.3830000  -9.5810000   8.3280000  11.6480000
 -10.7590000   9.1850000  12.0590000 -10.1680000   8.5690000  12.2470000
  -9.8050000  -4.7890000  16.1390000  -9.2240000  -4.3040000  15.5530000
 -10.3710000  -4.1190000  16.5220000  -9.8030000  -4.6410000  16.1130000
 -12.1120000   1.7170000  17.3680000 -11.2600000   1.3760000  17.0980000
 -12.0910000   1.6880000  18.3240000 -12.0010000   1.6690000  17.4550000
 -10.0360000  -8.2580000  16.8760000 -10.6330000  -8.6080000  17.5380000
  -9.3190000  -8.8900000  16.8410000 -10.0200000  -8.3830000  16.9560000
 -13.9660000   2.3880000  12.5830000 -13.5700000   2.7290000  13.3850000
 -13.4760000   2.8070000  11.8760000 -13.8540000   2.4850000  12.5950000
 -19.4960000   5.0450000  -2.5730000 -19.6700000   5.2060000  -1.6450000
 -20.2620000   4.5590000  -2.8790000 -19.6170000   5.0030000  -2.4930000
 -19.5310000  -4.8490000   3.3630000 -20.1340000  -5.4900000   3.7380000
 -18.7420000  -4.9180000   3.9010000 -19.5070000  -4.9390000   3.4800000
 -18.9930000  -8.4130000   9.6410000 -18.1010000  -8.6420000   9.3770000
 -19.5150000  -8.5340000   8.8480000 -18.9450000  -8.4570000   9.5060000
 -12.7640000   6.1010000  -9.0560000 -13.6260000   6.4290000  -9.3120000
 -12.8610000   5.1490000  -9.0570000 -12.8880000   6.0210000  -9.0890000
 -17.1080000  -5.0230000   4.6310000 -16.9290000  -5.9060000   4.9570000
 -16.7890000  -4.4440000   5.3230000 -17.0430000  -5.0620000   4.7620000
 -17.4200000   2.9730000  -3.1230000 -17.8450000   2.3660000  -3.7270000
 -18.0830000   3.6400000  -2.9450000 -17.5590000   2.9810000  -3.1770000
 -11.6670000  -6.3960000  -3.8700000 -11.5990000  -7.3430000  -3.9940000
 -10.7990000  -6.1300000  -3.5690000 -11.5480000  -6.4820000  -3.8470000
 -10.5490000  -2.1040000  -2.0290000 -11.3280000  -1.9940000  -1.4840000
 -10.2040000  -1.2180000  -2.1380000 -10.6040000  -1.9770000  -1.9730000
 -19.4520000  -5.9760000  -7.8810000 -19.7190000  -6.4390000  -7.0860000
 -19.4370000  -6.6530000  -8.5570000 -19.4850000  -6.1220000  -7.8650000
 -19.2170000   1.2120000   5.4030000 -19.3450000   0.3470000   5.7920000
 -18.7750000   1.0370000   4.5720000 -19.1770000   1.0790000   5.3460000
 -16.3410000   2.1640000  -7.5780000 -15.5710000   2.1850000  -7.0110000
 -16.0230000   1.7970000  -8.4020000 -16.2020000   2.1200000  -7.6110000
 -10.6060000   1.8010000  -5.8480000 -10.9710000   2.4420000  -5.2380000
 -11.3710000   1.3790000  -6.2400000 -10.7510000   1.8290000  -5.8200000
 -12.6240000   3.4010000  -8.8310000 -12.5810000   3.2670000  -9.7780000
 -11.7370000   3.6680000  -8.5880000 -12.5040000   3.4180000  -8.9210000
 -12.2800000  -6.1690000  -6.7430000 -12.1490000  -6.3130000  -5.8060000
 -13.1490000  -5.7710000  -6.8030000 -12.3740000  -6.1370000  -6.6300000
 -15.6300000   5.5680000  -2.2420000 -15.4540000   6.4180000  -2.6450000
 -16.3900000   5.2310000  -2.7160000 -15.7040000   5.6340000  -2.3540000
 -15.8400000   8.8930000  -0.9900000 -15.2540000   9.6300000  -1.1650000
 -16.6230000   9.0790000  -1.5090000 -15.8660000   9.0110000  -1.0790000
 -17.0520000  -2.9670000   6.5470000 -16.4650000  -2.6540000   7.2360000
 -17.7780000  -2.3420000   6.5470000 -17.0700000  -2.8480000   6.6350000
 -19.4320000  -2.4660000  -3.9210000 -20.2570000  -2.4850000  -4.4060000
 -19.6830000  -2.6520000  -3.0160000 -19.5700000  -2.4920000  -3.8670000
 -20.1790000   7.6180000  -7.9580000 -19.7200000   6.7960000  -7.7860000
 -19.4810000   8.2580000  -8.0970000 -20.0310000   7.5950000  -7.9540000
 -17.1600000  -6.0720000  -0.7920000 -18.1120000  -6.1360000  -0.7210000
 -16.8320000  -6.8000000  -0.2640000 -17.2400000  -6.1730000  -0.7150000
 -12.0300000   1.9360000   1.3300000 -11.5910000   2.4430000   2.0130000
 -12.7030000   1.4390000   1.7960000 -12.0590000   1.9370000   1.4770000
 -10.8160000   3.7040000   3.5580000 -11.5290000   4.3090000   3.3590000
 -10.1000000   4.2670000   3.8550000 -10.8140000   3.8530000   3.5710000
 -17.3040000   4.7650000  -7.5040000 -17.0000000   3.8720000  -7.3480000
 -16.7770000   5.3050000  -6.9150000 -17.1970000   4.7200000  -7.4090000
 -14.6800000  -4.7470000  -6.9280000 -14.5760000  -4.4040000  -6.0410000
 -14.8100000  -3.9710000  -7.4730000 -14.6840000  -4.6040000  -6.8840000
 -12.0390000  -3.8990000   0.3990000 -11.1260000  -3.8880000   0.6920000
 -12.0390000  -4.4840000  -0.3590000 -11.9210000  -3.9730000   0.3400000
 -14.1930000   0.4380000   2.2500000 -15.0680000   0.1810000   1.9600000
 -13.8410000  -0.3450000   2.6740000 -14.2610000   0.3050000   2.2670000
 -19.8490000  -3.0620000  -1.2870000 -19.7630000  -3.8460000  -0.7440000
 -19.4090000  -2.3750000  -0.7870000 -19.7810000  -3.0750000  -1.1540000
 -11.1860000  -5.4440000   8.0530000 -12.0860000  -5.7730000   8.0480000
 -10.8610000  -5.6210000   7.1710000 -11.2610000  -5.5090000   7.9400000
 -11.1700000   5.6780000  -5.9510000 -11.0490000   6.5530000  -6.3190000
 -10.9610000   5.0840000  -6.6720000 -11.1290000   5.7140000  -6.0910000
 -12.7520000  -8.9240000  -7.0730000 -12.6240000  -8.0080000  -7.3250000
 -13.7010000  -9.0190000  -6.9880000 -12.8580000  -8.8190000  -7.0940000
 -16.7230000   4.9620000   7.1830000 -16.1410000   4.7980000   7.9240000
 -17.3160000   5.6480000   7.4910000 -16.7250000   5.0290000   7.3170000
  -9.5770000  -7.5860000  -9.0720000  -9.7540000  -6.7440000  -9.4930000
 -10.3860000  -8.0850000  -9.1860000  -9.7030000  -7.5410000  -9.1400000
  -7.0080000  -1.6570000  -1.6940000  -6.9940000  -1.9700000  -0.7890000
  -7.0570000  -0.7040000  -1.6170000  -7.0130000  -1.5750000  -1.5680000
 -17.6150000  -3.7220000  -7.8110000 -18.2420000  -4.4450000  -7.7870000
 -17.3970000  -3.5620000  -6.8930000 -17.6670000  -3.7930000  -7.6910000
 -11.1500000  -6.2060000   5.4840000 -12.0160000  -6.3710000   5.1130000
 -10.5670000  -6.7980000   5.0060000 -11.1850000  -6.3030000   5.3750000
 -11.4440000  -0.7560000  -7.8100000 -11.9000000  -0.9970000  -7.0040000
 -10.5170000  -0.8960000  -7.6110000 -11.3840000  -0.8050000  -7.6810000
 -12.6990000   5.8640000   4.0280000 -13.0510000   5.7610000   4.9130000
 -12.5510000   6.8060000   3.9380000 -12.7250000   5.9710000   4.1300000
 -10.5620000   7.6310000   5.9070000 -10.3640000   7.2360000   6.7570000
 -11.2340000   8.2860000   6.0980000 -10.6240000   7.6640000   6.0400000
 -13.3180000  -5.0390000  -2.2220000 -12.6230000  -5.4250000  -2.7550000
 -13.9290000  -5.7610000  -2.0670000 -13.3080000  -5.1810000  -2.2710000
 -15.2440000   0.4100000   5.3200000 -15.8010000   0.0160000   4.6480000
 -15.8200000   1.0200000   5.7800000 -15.3890000   0.4380000   5.2930000
 -11.3310000  -0.3290000   8.5140000 -12.1530000   0.0110000   8.1650000
 -11.4740000  -0.3850000   9.4590000 -11.4540000  -0.2930000   8.5900000
 -17.4170000  -3.6030000  -5.1470000 -18.2400000  -3.3200000  -4.7510000
 -16.7400000  -3.2180000  -4.5920000 -17.4350000  -3.5180000  -5.0250000
 -15.3990000   1.4980000  -1.5990000 -14.8540000   1.9990000  -0.9920000
 -16.0920000   2.1050000  -1.8560000 -15.4170000   1.6390000  -1.5540000
 -12.6940000  -1.2560000  -5.4060000 -12.7370000  -0.6370000  -4.6760000
 -13.0600000  -2.0670000  -5.0540000 -12.7460000  -1.2800000  -5.2670000
 -17.9450000  -0.3920000  -4.9270000 -18.6170000  -1.0730000  -4.8970000
 -17.8650000  -0.1750000  -5.8560000 -18.0200000  -0.4510000  -5.0420000
 -16.7590000   8.5870000   4.1910000 -17.3080000   8.5180000   3.4110000
 -16.3940000   7.7100000   4.3070000 -16.7810000   8.4660000   4.1060000
 -13.9290000  -0.2460000   7.7020000 -14.6200000  -0.8860000   7.8700000
 -14.1380000   0.1100000   6.8390000 -14.0440000  -0.2830000   7.6130000
 -16.5050000  -5.9440000  -3.6520000 -16.8000000  -5.2290000  -4.2160000
 -16.7770000  -5.6830000  -2.7720000 -16.5770000  -5.8190000  -3.6120000
 -12.5520000   4.6080000  -1.9510000 -13.4670000   4.6180000  -2.2340000
 -12.4300000   3.7400000  -1.5660000 -12.6540000   4.4980000  -1.9380000
 -13.5920000  -2.5720000  -8.7010000 -13.1140000  -2.9250000  -9.4500000
 -13.0900000  -1.7990000  -8.4380000 -13.4670000  -2.5170000  -8.7630000
 -11.7400000 -11.4920000   0.6980000 -11.5940000 -11.0860000   1.5530000
 -12.6850000 -11.4240000   0.5590000 -11.8420000 -11.4320000   0.7900000
 -15.6520000  -1.3560000  -1.5880000 -15.1540000  -1.5630000  -2.3790000
 -15.4690000  -0.4310000  -1.4240000 -15.5650000  -1.2640000  -1.6680000
 -10.9650000   9.4160000   0.4800000 -11.1110000   8.4730000   0.5610000
 -10.3110000   9.6140000   1.1510000 -10.8990000   9.3200000   0.5760000
  -9.6320000   5.6940000  -0.7340000 -10.4750000   6.1070000  -0.5500000
  -9.7640000   4.7720000  -0.5160000  -9.7570000   5.6290000  -0.6830000
 -18.3320000  -0.7600000  -0.9650000 -18.7390000   0.0000000  -1.3810000
 -17.4700000  -0.8250000  -1.3750000 -18.2740000  -0.6710000  -1.0710000
 -13.7940000   0.4790000  -3.4830000 -13.1200000   0.8910000  -2.9430000
 -14.6040000   0.9250000  -3.2370000 -13.8110000   0.5890000  -3.3830000
 -15.3380000  -5.0200000   2.5590000 -15.7910000  -4.5780000   1.8410000
 -15.8790000  -4.8460000   3.3280000 -15.4640000  -4.9410000   2.5650000
 -10.1720000  -0.0920000   1.5030000 -10.5610000  -0.5660000   2.2390000
 -10.7070000   0.6970000   1.4170000 -10.2900000  -0.0520000   1.5860000
 -16.7980000  -3.5440000   0.3690000 -16.1730000  -3.0950000  -0.1980000
 -16.9400000  -4.3910000  -0.0550000 -16.7370000  -3.5950000   0.2420000
 -18.2630000   4.3330000   3.8680000 -17.8700000   5.1540000   4.1640000
 -19.1770000   4.3880000   4.1500000 -18.3300000   4.4450000   3.9420000
 -16.7750000  -6.7990000  -6.8750000 -17.5340000  -6.5510000  -7.4030000
 -16.2190000  -6.0190000  -6.8740000 -16.8010000  -6.6670000  -6.9420000
 -14.6520000  -7.6150000  -2.3620000 -15.3140000  -7.2100000  -2.9220000
 -13.9580000  -7.8790000  -2.9650000 -14.6490000  -7.5960000  -2.5110000
 -13.0390000  -2.3830000   3.0170000 -13.3040000  -3.0350000   3.6670000
 -12.8200000  -2.8970000   2.2390000 -13.0450000  -2.5320000   3.0010000
 -19.8440000   4.6170000  -8.4750000 -19.0000000   4.5790000  -8.0240000
 -19.6200000   4.8220000  -9.3830000 -19.7070000   4.6380000  -8.5330000
 -15.4810000   4.8620000   0.2530000 -15.3830000   5.1090000  -0.6670000
 -16.3340000   5.2120000   0.5050000 -15.5770000   4.9380000   0.1680000
 -18.0900000   9.2760000  -2.4080000 -18.2750000   8.4490000  -2.8540000
 -18.4030000   9.9490000  -3.0130000 -18.1550000   9.2560000  -2.5430000
 -11.9860000  -8.8550000   9.2170000 -12.5270000  -9.3700000   9.8150000
 -12.4500000  -8.0220000   9.1300000 -12.1150000  -8.8140000   9.2830000
 -16.5020000   8.5110000  -9.3180000 -16.3440000   9.3500000  -9.7510000
 -16.2400000   8.6580000  -8.4090000 -16.4490000   8.6370000  -9.2570000
 -14.3920000   7.2880000   0.7920000 -14.9360000   7.8880000   0.2810000
 -14.7840000   6.4270000   0.6460000 -14.5110000   7.2550000   0.7080000
 -10.6170000  -1.3030000   4.4150000 -11.5140000  -1.6280000   4.3280000
 -10.7180000  -0.4080000   4.7400000 -10.7450000  -1.2300000   4.4460000
 -20.3010000   9.6560000  -0.2350000 -20.3350000   8.9690000   0.4300000
 -19.8250000   9.2610000  -0.9650000 -20.2450000   9.5180000  -0.2430000
 -18.4210000   0.3840000  -7.5470000 -17.6910000   1.0040000  -7.5580000
 -19.2030000   0.9350000  -7.5780000 -18.4290000   0.5340000  -7.5530000
 -18.7900000  -2.2350000   1.5690000 -19.2390000  -2.9890000   1.9510000
 -18.0670000  -2.6150000   1.0690000 -18.7550000  -2.3800000   1.5540000
 -17.2550000   1.8890000   3.2810000 -17.5310000   2.7130000   3.6830000
 -16.3040000   1.8760000   3.3900000 -17.1670000   1.9930000   3.3460000
 -17.8990000   9.1120000   1.5300000 -17.1090000   9.6500000   1.4760000
 -18.4990000   9.5040000   0.8960000 -17.8750000   9.2310000   1.4420000
 -18.1150000  -5.1540000   7.9710000 -18.5820000  -4.5560000   8.5550000
 -17.5200000  -4.5900000   7.4760000 -18.1000000  -5.0060000   7.9820000
 -14.9090000   7.7420000  -3.6180000 -15.2760000   8.3230000  -2.9530000
 -14.0170000   8.0650000  -3.7520000 -14.8410000   7.8580000  -3.5500000
 -16.8040000   0.1790000   1.3670000 -17.0710000   0.8220000   2.0240000
 -17.6020000  -0.0030000   0.8710000 -16.9400000   0.2380000   1.3870000
 -16.8270000  -1.4870000   3.9290000 -16.9900000  -1.1780000   3.0380000
 -17.6880000  -1.7510000   4.2520000 -16.9580000  -1.4810000   3.8570000
 -16.6050000  -7.2660000   8.0670000 -16.6080000  -7.5560000   7.1550000
 -17.2770000  -6.5860000   8.1040000 -16.6910000  -7.2160000   7.9550000
 -16.8940000   2.1760000   6.4650000 -17.7130000   2.0200000   5.9940000
 -16.8460000   3.1280000   6.5540000 -16.9930000   2.2780000   6.4160000
 -12.5440000  -3.1280000   7.6960000 -11.8310000  -3.7600000   7.7910000
 -12.1040000  -2.2910000   7.5500000 -12.3970000  -3.1020000   7.6890000
 -11.0710000   8.1490000   3.2650000 -10.7890000   8.0530000   4.1750000
 -11.8530000   8.7000000   3.3140000 -11.1360000   8.2070000   3.3880000
 -11.1500000   6.9270000  -3.3000000 -11.0810000   6.2980000  -2.5830000
 -11.0840000   6.3950000  -4.0930000 -11.1340000   6.7790000  -3.3100000
 -19.5480000  -5.5890000  -2.7690000 -20.4000000  -5.7270000  -3.1810000
 -19.4980000  -4.6420000  -2.6330000 -19.6500000  -5.4860000  -2.8040000
 -18.5020000  -1.9180000  -9.5300000 -18.5220000  -1.2680000  -8.8280000
 -18.1470000  -2.7070000  -9.1180000 -18.4600000  -1.9350000  -9.3880000
 -13.5190000  -6.6680000   7.8910000 -13.4590000  -7.0160000   7.0010000
 -14.4590000  -6.6200000   8.0650000 -13.6330000  -6.7070000   7.7990000
 -16.5400000   6.9610000  -5.6600000 -17.2260000   6.8890000  -4.9950000
 -15.7420000   7.1390000  -5.1630000 -16.5270000   6.9740000  -5.5110000
 -18.8300000  -7.4150000  -4.6780000 -19.0540000  -6.6310000  -4.1790000
 -17.9300000  -7.2630000  -4.9700000 -18.7430000  -7.2950000  -4.6510000
 -13.4020000  -7.6950000   0.1920000 -12.5310000  -8.0880000   0.2490000
 -13.5010000  -7.4640000  -0.7310000 -13.3040000  -7.7160000   0.0810000
 -16.4950000  -7.4280000   5.3260000 -16.7540000  -8.2040000   4.8290000
 -15.5390000  -7.4230000   5.2780000 -16.4060000  -7.5270000   5.2560000
 -13.3770000  -3.8300000  -4.5600000 -13.5990000  -4.0800000  -3.6620000
 -12.5610000  -4.2960000  -4.7430000 -13.3010000  -3.9220000  -4.4680000
 -15.5310000   5.9330000  -9.4130000 -15.9310000   6.8010000  -9.3630000
 -16.0080000   5.4120000  -8.7660000 -15.6440000   5.9780000  -9.3240000
 -19.5750000  -5.2810000   0.6070000 -20.4260000  -5.7120000   0.5200000
 -19.4760000  -5.1330000   1.5480000 -19.6710000  -5.3160000   0.7160000
 -16.2750000   5.9250000   4.6480000 -16.4770000   5.6150000   5.5300000
 -15.7610000   5.2170000   4.2580000 -16.2340000   5.7940000   4.7110000
 -10.6860000  -3.8060000  -6.7240000 -11.5100000  -4.2930000  -6.7720000
 -10.9380000  -2.9420000  -6.3960000 -10.8240000  -3.7580000  -6.6880000
 -13.6290000   3.5270000   7.2950000 -14.2690000   2.9940000   7.7670000
 -13.6670000   3.2040000   6.3940000 -13.7160000   3.4170000   7.2400000
 -19.8620000   5.8950000   7.4300000 -20.2500000   5.5300000   6.6340000
 -20.5100000   6.5240000   7.7450000 -19.9950000   5.9280000   7.3690000
 -10.9620000   1.3640000   5.1120000 -11.8540000   1.5800000   5.3900000
 -10.6860000   2.1170000   4.5900000 -11.0410000   1.4880000   5.0810000
 -11.8940000   3.3860000  -4.4560000 -11.8730000   3.5020000  -3.5060000
 -11.7210000   4.2590000  -4.8070000 -11.8690000   3.5130000  -4.3790000
 -12.5190000   9.3260000  -4.1490000 -12.7840000   9.2910000  -5.0680000
 -11.8970000   8.6050000  -4.0500000 -12.4740000   9.2290000  -4.2540000
 -15.3450000   9.3220000  -6.6380000 -15.8620000   8.6370000  -6.2120000
 -15.8280000  10.1290000  -6.4640000 -15.4740000   9.3370000  -6.5610000
 -15.6090000  10.8650000   1.6630000 -14.8340000  10.7090000   1.1240000
 -15.6390000  11.8160000   1.7690000 -15.5140000  10.9660000   1.6080000
 -19.0390000   7.2770000  -4.1080000 -19.2770000   6.4640000  -3.6640000
 -19.8440000   7.5550000  -4.5450000 -19.1710000   7.2090000  -4.1070000
 -13.8450000   6.6970000   7.1990000 -13.5760000   5.7930000   7.3590000
 -14.7980000   6.6840000   7.3000000 -13.9330000   6.5800000   7.2330000
 -13.5360000   2.4030000   4.8960000 -14.1450000   1.6670000   4.9520000
 -13.9670000   3.0270000   4.3130000 -13.6680000   2.3880000   4.8290000
 -15.5740000  -1.8170000  -4.1390000 -14.9530000  -1.3730000  -4.7180000
 -16.3840000  -1.3130000  -4.2240000 -15.5980000  -1.6950000  -4.2240000
 -14.6800000   4.2620000   2.9150000 -14.8540000   4.1850000   1.9770000
 -13.8970000   4.8090000   2.9700000 -14.6020000   4.3220000   2.8020000
 -19.8620000   0.6460000  -2.7660000 -19.3490000   0.0460000  -3.3060000
 -20.1370000   1.3360000  -3.3700000 -19.8330000   0.6570000  -2.9120000
 -12.8340000   9.2130000   6.5250000 -12.4260000   9.3850000   7.3730000
 -13.1040000   8.2960000   6.5700000 -12.8160000   9.1180000   6.6390000
 -13.8200000  -6.1250000   4.7930000 -14.1080000  -5.2990000   5.1840000
 -14.0430000  -6.0410000   3.8660000 -13.8860000  -6.0080000   4.7250000
 -10.1670000   8.5050000  -6.4770000  -9.5810000   8.3280000  -7.2120000
 -10.7590000   9.1850000  -6.8010000 -10.1680000   8.5690000  -6.6130000
 -10.3280000   6.8600000   8.5180000 -11.0990000   6.8910000   9.0820000
  -9.7100000   7.4700000   8.9240000 -10.3470000   6.9420000   8.6430000
  -9.8050000  -4.7890000  -2.7210000  -9.2240000  -4.3040000  -3.3070000
 -10.3710000  -4.1190000  -2.3380000  -9.8030000  -4.6410000  -2.7470000
 -15.4260000   1.9870000   8.5870000 -16.2370000   2.0250000   8.0800000
 -15.0620000   1.1240000   8.3920000 -15.4840000   1.8820000   8.4970000
 -12.1120000   1.7170000  -1.4920000 -11.2600000   1.3760000  -1.7620000
 -12.0910000   1.6880000  -0.5360000 -12.0010000   1.6690000  -1.4050000
 -19.1830000  -1.3720000   6.4130000 -19.9370000  -1.7020000   5.9240000
 -19.3840000  -1.5700000   7.3270000 -19.3040000  -1.4400000   6.4670000
 -15.6330000  -2.0500000   8.4820000 -16.4170000  -2.0880000   9.0300000
 -14.9950000  -2.6000000   8.9360000 -15.6510000  -2.1240000   8.6100000
 -10.0360000  -8.2580000  -1.9840000 -10.6330000  -8.6080000  -1.3220000
  -9.3190000  -8.8900000  -2.0190000 -10.0200000  -8.3830000  -1.9040000
 -13.9660000   2.3880000  -6.2770000 -13.5700000   2.7290000  -5.4750000
 -13.4760000   2.8070000  -6.9840000 -13.8540000   2.4850000  -6.2650000
 -14.2380000  -3.5260000   5.6850000 -13.5440000  -3.3320000   6.3170000
 -14.8740000  -2.8200000   5.8030000 -14.2310000  -3.4120000   5.7810000
 -13.7720000   8.7440000   3.1600000 -14.2450000   9.5760000   3.1530000
 -14.3040000   8.1630000   2.6160000 -13.9010000   8.7760000   3.0900000
 -19.5310000  -4.8490000 -15.4970000 -20.1340000  -5.4900000 -15.1220000
 -18.7420000  -4.9180000 -14.9590000 -19.5070000  -4.9390000 -15.3800000
 -18.9930000  -8.4130000  -9.2190000 -18.1010000  -8.6420000  -9.4830000
 -19.5150000  -8.5340000 -10.0120000 -18.9450000  -8.4570000  -9.3540000
 -17.1080000  -5.0230000 -14.2290000 -16.9290000  -5.9060000 -13.9030000
 -16.7890000  -4.4440000 -13.5370000 -17.0430000  -5.0620000 -14.0980000
 -19.2170000   1.2120000 -13.4570000 -19.3450000   0.3470000 -13.0680000
 -18.7750000   1.0370000 -14.2880000 -19.1770000   1.0790000 -13.5140000
 -17.0520000  -2.9670000 -12.3130000 -16.4650000  -2.6540000 -11.6240000
 -17.7780000  -2.3420000 -12.3130000 -17.0700000  -2.8480000 -12.2250000
 -17.1600000  -6.0720000 -19.6520000 -18.1120000  -6.1360000 -19.5810000
 -16.8320000  -6.8000000 -19.1240000 -17.2400000  -6.1730000 -19.5750000
 -12.0300000   1.9360000 -17.5300000 -11.5910000   2.4430000 -16.8470000
 -12.7030000   1.4390000 -17.0640000 -12.0590000   1.9370000 -17.3830000
 -10.8160000   3.7040000 -15.3020000 -11.5290000   4.3090000 -15.5010000
 -10.1000000   4.2670000 -15.0050000 -10.8140000   3.8530000 -15.2890000
 -12.0390000  -3.8990000 -18.4610000 -11.1260000  -3.8880000 -18.1680000
 -12.0390000  -4.4840000 -19.2190000 -11.9210000  -3.9730000 -18.5200000
 -14.1930000   0.4380000 -16.6100000 -15.0680000   0.1810000 -16.9000000
 -13.8410000  -0.3450000 -16.1860000 -14.2610000   0.3050000 -16.5930000
 -11.1860000  -5.4440000 -10.8070000 -12.0860000  -5.7730000 -10.8120000
 -10.8610000  -5.6210000 -11.6890000 -11.2610000  -5.5090000 -10.9200000
 -16.7230000   4.9620000 -11.6770000 -16.1410000   4.7980000 -10.9360000
 -17.3160000   5.6480000 -11.3690000 -16.7250000   5.0290000 -11.5430000
 -11.1500000  -6.2060000 -13.3760000 -12.0160000  -6.3710000 -13.7470000
 -10.5670000  -6.7980000 -13.8540000 -11.1850000  -6.3030000 -13.4850000
 -12.6990000   5.8640000 -14.8320000 -13.0510000   5.7610000 -13.9470000
 -12.5510000   6.8060000 -14.9220000 -12.7250000   5.9710000 -14.7300000
 -10.5620000   7.6310000 -12.9530000 -10.3640000   7.2360000 -12.1030000
 -11.2340000   8.2860000 -12.7620000 -10.6240000   7.6640000 -12.8200000
 -15.2440000   0.4100000 -13.5400000 -15.8010000   0.0160000 -14.2120000
 -15.8200000   1.0200000 -13.0800000 -15.3890000   0.4380000 -13.5670000
 -11.3310000  -0.3290000 -10.3460000 -12.1530000   0.0110000 -10.6950000
 -11.4740000  -0.3850000  -9.4010000 -11.4540000  -0.2930000 -10.2700000
 -16.7590000   8.5870000 -14.6690000 -17.3080000   8.5180000 -15.4490000
 -16.3940000   7.7100000 -14.5530000 -16.7810000   8.4660000 -14.7540000
 -13.9290000  -0.2460000 -11.1580000 -14.6200000  -0.8860000 -10.9900000
 -14.1380000   0.1100000 -12.0210000 -14.0440000  -0.2830000 -11.2470000
 -18.0520000   5.7120000 -17.4300000 -18.1150000   5.1920000 -16.6280000
 -17.5070000   6.4610000 -17.1870000 -17.9900000   5.7410000 -17.2960000
 -11.7400000 -11.4920000 -18.1620000 -11.5940000 -11.0860000 -17.3070000
 -12.6850000 -11.4240000 -18.3010000 -11.8420000 -11.4320000 -18.0700000
 -10.9650000   9.4160000 -18.3800000 -11.1110000   8.4730000 -18.2990000
 -10.3110000   9.6140000 -17.7090000 -10.8990000   9.3200000 -18.2840000
  -9.6320000   5.6940000 -19.5940000 -10.4750000   6.1070000 -19.4100000
  -9.7640000   4.7720000 -19.3760000  -9.7570000   5.6290000 -19.5430000
 -15.3380000  -5.0200000 -16.3010000 -15.7910000  -4.5780000 -17.0190000
 -15.8790000  -4.8460000 -15.5320000 -15.4640000  -4.9410000 -16.2950000
 -10.1720000  -0.0920000 -17.3570000 -10.5610000  -0.5660000 -16.6210000
 -10.7070000   0.6970000 -17.4430000 -10.2900000  -0.0520000 -17.2740000
 -16.7980000  -3.5440000 -18.4910000 -16.1730000  -3.0950000 -19.0580000
 -16.9400000  -4.3910000 -18.9150000 -16.7370000  -3.5950000 -18.6180000
 -18.2630000   4.3330000 -14.9920000 -17.8700000   5.1540000 -14.6960000
 -19.1770000   4.3880000 -14.7100000 -18.3300000   4.4450000 -14.9180000
 -13.0390000  -2.3830000 -15.8430000 -13.3040000  -3.0350000 -15.1930000
 -12.8200000  -2.8970000 -16.6210000 -13.0450000  -2.5320000 -15.8590000
 -15.4810000   4.8620000 -18.6070000 -15.3830000   5.1090000 -19.5270000
 -16.3340000   5.2120000 -18.3550000 -15.5770000   4.9380000 -18.6920000
 -11.9860000  -8.8550000  -9.6430000 -12.5270000  -9.3700000  -9.0450000
 -12.4500000  -8.0220000  -9.7300000 -12.1150000  -8.8140000  -9.5770000
 -14.3920000   7.2880000 -18.0680000 -14.9360000   7.8880000 -18.5790000
 -14.7840000   6.4270000 -18.2140000 -14.5110000   7.2550000 -18.1520000
 -10.6170000  -1.3030000 -14.4450000 -11.5140000  -1.6280000 -14.5320000
 -10.7180000  -0.4080000 -14.1200000 -10.7450000  -1.2300000 -14.4140000
 -18.7900000  -2.2350000 -17.2910000 -19.2390000  -2.9890000 -16.9090000
 -18.0670000  -2.6150000 -17.7910000 -18.7550000  -2.3800000 -17.3060000
 -17.2550000   1.8890000 -15.5790000 -17.5310000   2.7130000 -15.1770000
 -16.3040000   1.8760000 -15.4700000 -17.1670000   1.9930000 -15.5140000
 -17.8990000   9.1120000 -17.3300000 -17.1090000   9.6500000 -17.3840000
 -18.4990000   9.5040000 -17.9640000 -17.8750000   9.2310000 -17.4180000
 -18.1150000  -5.1540000 -10.8890000 -18.5820000  -4.5560000 -10.3050000
 -17.5200000  -4.5900000 -11.3840000 -18.1000000  -5.0060000 -10.8780000
 -16.8040000   0.1790000 -17.4930000 -17.0710000   0.8220000 -16.8360000
 -17.6020000  -0.0030000 -17.9890000 -16.9400000   0.2380000 -17.4730000
 -16.8270000  -1.4870000 -14.9310000 -16.9900000  -1.1780000 -15.8220000
 -17.6880000  -1.7510000 -14.6080000 -16.9580000  -1.4810000 -15.0030000
 -16.6050000  -7.2660000 -10.7930000 -16.6080000  -7.5560000 -11.7050000
 -17.2770000  -6.5860000 -10.7560000 -16.6910000  -7.2160000 -10.9050000
 -16.8940000   2.1760000 -12.3950000 -17.7130000   2.0200000 -12.8660000
 -16.8460000   3.1280000 -12.3060000 -16.9930000   2.2780000 -12.4440000
 -12.5440000  -3.1280000 -11.1640000 -11.8310000  -3.7600000 -11.0690000
 -12.1040000  -2.2910000 -11.3100000 -12.3970000  -3.1020000 -11.1710000
 -11.0710000   8.1490000 -15.5950000 -10.7890000   8.0530000 -14.6850000
 -11.8530000   8.7000000 -15.5460000 -11.1360000   8.2070000 -15.4720000
 -13.5190000  -6.6680000 -10.9690000 -13.4590000  -7.0160000 -11.8590000
 -14.4590000  -6.6200000 -10.7950000 -13.6330000  -6.7070000 -11.0610000
 -13.4020000  -7.6950000 -18.6680000 -12.5310000  -8.0880000 -18.6110000
 -13.5010000  -7.4640000 -19.5910000 -13.3040000  -7.7160000 -18.7790000
 -16.4950000  -7.4280000 -13.5340000 -16.7540000  -8.2040000 -14.0310000
 -15.5390000  -7.4230000 -13.5820000 -16.4060000  -7.5270000 -13.6040000
 -19.5750000  -5.2810000 -18.2530000 -20.4260000  -5.7120000 -18.3400000
 -19.4760000  -5.1330000 -17.3120000 -19.6710000  -5.3160000 -18.1440000
 -16.2750000   5.9250000 -14.2120000 -16.4770000   5.6150000 -13.3300000
 -15.7610000   5.2170000 -14.6020000 -16.2340000   5.7940000 -14.1490000
 -13.6290000   3.5270000 -11.5650000 -14.2690000   2.9940000 -11.0930000
 -13.6670000   3.2040000 -12.4660000 -13.7160000   3.4170000 -11.6200000
 -19.8620000   5.8950000 -11.4300000 -20.2500000   5.5300000 -12.2260000
 -20.5100000   6.5240000 -11.1150000 -19.9950000   5.9280000 -11.4910000
 -10.9620000   1.3640000 -13.7480000 -11.8540000   1.5800000 -13.4700000
 -10.6860000   2.1170000 -14.2700000 -11.0410000   1.4880000 -13.7790000
 -15.6090000  10.8650000 -17.1970000 -14.8340000  10.7090000 -17.7360000
 -15.6390000  11.8160000 -17.0910000 -15.5140000  10.9660000 -17.2520000
 -13.8450000   6.6970000 -11.6610000 -13.5760000   5.7930000 -11.5010000
 -14.7980000   6.6840000 -11.5600000 -13.9330000   6.5800000 -11.6270000
 -13.5360000   2.4030000 -13.9640000 -14.1450000   1.6670000 -13.9080000
 -13.9670000   3.0270000 -14.5470000 -13.6680000   2.3880000 -14.0310000
 -14.6800000   4.2620000 -15.9450000 -14.8540000   4.1850000 -16.8830000
 -13.8970000   4.8090000 -15.8900000 -14.6020000   4.3220000 -16.0580000
 -12.8340000   9.2130000 -12.3350000 -12.4260000   9.3850000 -11.4870000
 -13.1040000   8.2960000 -12.2900000 -12.8160000   9.1180000 -12.2210000
 -13.8200000  -6.1250000 -14.0670000 -14.1080000  -5.2990000 -13.6760000
 -14.0430000  -6.0410000 -14.9940000 -13.8860000  -6.0080000 -14.1350000
 -15.4260000   1.9870000 -10.2730000 -16.2370000   2.0250000 -10.7800000
 -15.0620000   1.1240000 -10.4680000 -15.4840000   1.8820000 -10.3630000
 -19.1830000  -1.3720000 -12.4470000 -19.9370000  -1.7020000 -12.9360000
 -19.3840000  -1.5700000 -11.5330000 -19.3040000  -1.4400000 -12.3930000
 -15.6330000  -2.0500000 -10.3780000 -16.4170000  -2.0880000  -9.8300000
 -14.9950000  -2.6000000  -9.9240000 -15.6510000  -2.1240000 -10.2500000
 -14.2380000  -3.5260000 -13.1750000 -13.5440000  -3.3320000 -12.5430000
 -14.8740000  -2.8200000 -13.0570000 -14.2310000  -3.4120000 -13.0790000
 -13.7720000   8.7440000 -15.7000000 -14.2450000   9.5760000 -15.7070000
 -14.3040000   8.1630000 -16.2440000 -13.9010000   8.7760000 -15.7700000
 -19.4960000 -13.8230000  16.2870000 -19.6700000 -13.6620000  17.2150000
 -20.2620000 -14.3090000  15.9810000 -19.6170000 -13.8640000  16.3670000
 -12.7640000 -12.7670000   9.8040000 -13.6260000 -12.4390000   9.5480000
 -12.8610000 -13.7190000   9.8030000 -12.8880000 -12.8470000   9.7710000
 -17.4200000 -15.8940000  15.7370000 -17.8450000 -16.5020000  15.1330000
 -18.0830000 -15.2280000  15.9150000 -17.5590000 -15.8870000  15.6830000
 -10.5490000 -20.9710000  16.8310000 -11.3280000 -20.8620000  17.3760000
 -10.2040000 -20.0860000  16.7220000 -10.6040000 -20.8450000  16.8870000
 -16.3410000 -16.7040000  11.2820000 -15.5710000 -16.6830000  11.8490000
 -16.0230000 -17.0710000  10.4580000 -16.2020000 -16.7480000  11.2490000
 -10.6060000 -17.0670000  13.0120000 -10.9710000 -16.4260000  13.6220000
 -11.3710000 -17.4890000  12.6200000 -10.7510000 -17.0390000  13.0400000
 -12.6240000 -15.4660000  10.0290000 -12.5810000 -15.6010000   9.0820000
 -11.7370000 -15.2000000  10.2720000 -12.5040000 -15.4500000   9.9390000
 -15.6300000 -13.3000000  16.6180000 -15.4540000 -12.4500000  16.2150000
 -16.3900000 -13.6370000  16.1440000 -15.7040000 -13.2340000  16.5060000
 -15.8400000  -9.9750000  17.8700000 -15.2540000  -9.2380000  17.6950000
 -16.6230000  -9.7890000  17.3510000 -15.8660000  -9.8570000  17.7810000
 -19.4320000 -21.3340000  14.9390000 -20.2570000 -21.3520000  14.4540000
 -19.6830000 -21.5200000  15.8440000 -19.5700000 -21.3600000  14.9930000
 -20.1790000 -11.2500000  10.9020000 -19.7200000 -12.0720000  11.0740000
 -19.4810000 -10.6100000  10.7630000 -20.0310000 -11.2730000  10.9060000
 -17.3040000 -14.1030000  11.3560000 -17.0000000 -14.9950000  11.5120000
 -16.7770000 -13.5630000  11.9450000 -17.1970000 -14.1480000  11.4510000
 -11.1700000 -13.1900000  12.9090000 -11.0490000 -12.3150000  12.5410000
 -10.9610000 -13.7840000  12.1880000 -11.1290000 -13.1540000  12.7690000
  -7.0080000 -20.5250000  17.1660000  -6.9940000 -20.8380000  18.0710000
  -7.0570000 -19.5720000  17.2430000  -7.0130000 -20.4430000  17.2920000
 -11.4440000 -19.6240000  11.0500000 -11.9000000 -19.8650000  11.8560000
 -10.5170000 -19.7640000  11.2490000 -11.3840000 -19.6730000  11.1790000
 -15.3990000 -17.3700000  17.2610000 -14.8540000 -16.8690000  17.8680000
 -16.0920000 -16.7630000  17.0040000 -15.4170000 -17.2290000  17.3060000
 -12.6940000 -20.1240000  13.4540000 -12.7370000 -19.5050000  14.1840000
 -13.0600000 -20.9350000  13.8060000 -12.7460000 -20.1480000  13.5930000
 -17.9450000 -19.2600000  13.9330000 -18.6170000 -19.9410000  13.9630000
 -17.8650000 -19.0430000  13.0040000 -18.0200000 -19.3190000  13.8180000
 -12.5520000 -14.2600000  16.9090000 -13.4670000 -14.2500000  16.6260000
 -12.4300000 -15.1280000  17.2940000 -12.6540000 -14.3690000  16.9220000
 -13.5920000 -21.4390000  10.1590000 -13.1140000 -21.7920000   9.4100000
 -13.0900000 -20.6670000  10.4220000 -13.4670000 -21.3850000  10.0970000
 -15.6520000 -20.2240000  17.2720000 -15.1540000 -20.4310000  16.4810000
 -15.4690000 -19.2990000  17.4360000 -15.5650000 -20.1320000  17.1920000
  -9.6320000 -13.1740000  18.1260000 -10.4750000 -12.7610000  18.3100000
  -9.7640000 -14.0960000  18.3440000  -9.7570000 -13.2390000  18.1770000
 -18.3320000 -19.6280000  17.8950000 -18.7390000 -18.8680000  17.4790000
 -17.4700000 -19.6930000  17.4850000 -18.2740000 -19.5390000  17.7890000
 -13.7940000 -18.3890000  15.3770000 -13.1200000 -17.9770000  15.9170000
 -14.6040000 -17.9430000  15.6230000 -13.8110000 -18.2790000  15.4770000
 -19.8440000 -14.2510000  10.3850000 -19.0000000 -14.2890000  10.8360000
 -19.6200000 -14.0460000   9.4770000 -19.7070000 -14.2300000  10.3270000
 -15.4810000 -14.0060000  19.1130000 -15.3830000 -13.7590000  18.1930000
 -16.3340000 -13.6560000  19.3650000 -15.5770000 -13.9300000  19.0280000
 -18.0900000  -9.5920000  16.4520000 -18.2750000 -10.4190000  16.0060000
 -18.4030000  -8.9190000  15.8470000 -18.1550000  -9.6120000  16.3170000
 -16.5020000 -10.3570000   9.5420000 -16.3440000  -9.5180000   9.1090000
 -16.2400000 -10.2100000  10.4510000 -16.4490000 -10.2310000   9.6030000
 -14.3920000 -11.5800000  19.6520000 -14.9360000 -10.9800000  19.1410000
 -14.7840000 -12.4410000  19.5060000 -14.5110000 -11.6130000  19.5680000
 -20.3010000  -9.2120000  18.6250000 -20.3350000  -9.8990000  19.2900000
 -19.8250000  -9.6070000  17.8950000 -20.2450000  -9.3500000  18.6170000
 -18.4210000 -18.4840000  11.3130000 -17.6910000 -17.8640000  11.3020000
 -19.2030000 -17.9330000  11.2820000 -18.4290000 -18.3340000  11.3070000
 -14.9090000 -11.1260000  15.2420000 -15.2760000 -10.5450000  15.9070000
 -14.0170000 -10.8030000  15.1080000 -14.8410000 -11.0100000  15.3100000
 -11.1500000 -11.9410000  15.5600000 -11.0810000 -12.5700000  16.2770000
 -11.0840000 -12.4730000  14.7670000 -11.1340000 -12.0890000  15.5500000
 -18.5020000 -20.7850000   9.3300000 -18.5220000 -20.1360000  10.0320000
 -18.1470000 -21.5740000   9.7420000 -18.4600000 -20.8030000   9.4720000
 -16.5400000 -11.9070000  13.2000000 -17.2260000 -11.9790000  13.8650000
 -15.7420000 -11.7290000  13.6970000 -16.5270000 -11.8940000  13.3490000
 -15.5310000 -12.9350000   9.4470000 -15.9310000 -12.0670000   9.4970000
 -16.0080000 -13.4560000  10.0940000 -15.6440000 -12.8900000   9.5360000
 -11.8940000 -15.4820000  14.4040000 -11.8730000 -15.3660000  15.3540000
 -11.7210000 -14.6090000  14.0530000 -11.8690000 -15.3550000  14.4810000
 -12.5190000  -9.5420000  14.7110000 -12.7840000  -9.5770000  13.7920000
 -11.8970000 -10.2630000  14.8100000 -12.4740000  -9.6390000  14.6060000
 -15.3450000  -9.5460000  12.2220000 -15.8620000 -10.2310000  12.6480000
 -15.8280000  -8.7390000  12.3960000 -15.4740000  -9.5310000  12.2990000
 -19.0390000 -11.5910000  14.7520000 -19.2770000 -12.4040000  15.1960000
 -19.8440000 -11.3130000  14.3150000 -19.1710000 -11.6590000  14.7530000
 -15.5740000 -20.6850000  14.7210000 -14.9530000 -20.2410000  14.1420000
 -16.3840000 -20.1810000  14.6360000 -15.5980000 -20.5630000  14.6360000
 -19.8620000 -18.2220000  16.0940000 -19.3490000 -18.8220000  15.5540000
 -20.1370000 -17.5320000  15.4900000 -19.8330000 -18.2110000  15.9480000
 -10.1670000 -10.3630000  12.3830000  -9.5810000 -10.5400000  11.6480000
 -10.7590000  -9.6830000  12.0590000 -10.1680000 -10.2990000  12.2470000
 -12.1120000 -17.1510000  17.3680000 -11.2600000 -17.4920000  17.0980000
 -12.0910000 -17.1800000  18.3240000 -12.0010000 -17.1990000  17.4550000
 -13.9660000 -16.4800000  12.5830000 -13.5700000 -16.1390000  13.3850000
 -13.4760000 -16.0610000  11.8760000 -13.8540000 -16.3830000  12.5950000
 -19.4960000 -13.8230000  -2.5730000 -19.6700000 -13.6620000  -1.6450000
 -20.2620000 -14.3090000  -2.8790000 -19.6170000 -13.8640000  -2.4930000
 -12.7640000 -12.7670000  -9.0560000 -13.6260000 -12.4390000  -9.3120000
 -12.8610000 -13.7190000  -9.0570000 -12.8880000 -12.8470000  -9.0890000
 -17.4200000 -15.8940000  -3.1230000 -17.8450000 -16.5020000  -3.7270000
 -18.0830000 -15.2280000  -2.9450000 -17.5590000 -15.8870000  -3.1770000
 -10.5490000 -20.9710000  -2.0290000 -11.3280000 -20.8620000  -1.4840000
 -10.2040000 -20.0860000  -2.1380000 -10.6040000 -20.8450000  -1.9730000
 -19.2170000 -17.6560000   5.4030000 -19.3450000 -18.5210000   5.7920000
 -18.7750000 -17.8310000   4.5720000 -19.1770000 -17.7890000   5.3460000
 -16.3410000 -16.7040000  -7.5780000 -15.5710000 -16.6830000  -7.0110000
 -16.0230000 -17.0710000  -8.4020000 -16.2020000 -16.7480000  -7.6110000
 -10.6060000 -17.0670000  -5.8480000 -10.9710000 -16.4260000  -5.2380000
 -11.3710000 -17.4890000  -6.2400000 -10.7510000 -17.0390000  -5.8200000
 -12.6240000 -15.4660000  -8.8310000 -12.5810000 -15.6010000  -9.7780000
 -11.7370000 -15.2000000  -8.5880000 -12.5040000 -15.4500000  -8.9210000
 -15.6300000 -13.3000000  -2.2420000 -15.4540000 -12.4500000  -2.6450000
 -16.3900000 -13.6370000  -2.7160000 -15.7040000 -13.2340000  -2.3540000
 -15.8400000  -9.9750000  -0.9900000 -15.2540000  -9.2380000  -1.1650000
 -16.6230000  -9.7890000  -1.5090000 -15.8660000  -9.8570000  -1.0790000
 -17.0520000 -21.8350000   6.5470000 -16.4650000 -21.5220000   7.2360000
 -17.7780000 -21.2100000   6.5470000 -17.0700000 -21.7150000   6.6350000
 -19.4320000 -21.3340000  -3.9210000 -20.2570000 -21.3520000  -4.4060000
 -19.6830000 -21.5200000  -3.0160000 -19.5700000 -21.3600000  -3.8670000
 -20.1790000 -11.2500000  -7.9580000 -19.7200000 -12.0720000  -7.7860000
 -19.4810000 -10.6100000  -8.0970000 -20.0310000 -11.2730000  -7.9540000
 -12.0300000 -16.9320000   1.3300000 -11.5910000 -16.4250000   2.0130000
 -12.7030000 -17.4290000   1.7960000 -12.0590000 -16.9310000   1.4770000
 -10.8160000 -15.1640000   3.5580000 -11.5290000 -14.5590000   3.3590000
 -10.1000000 -14.6010000   3.8550000 -10.8140000 -15.0150000   3.5710000
 -17.3040000 -14.1030000  -7.5040000 -17.0000000 -14.9950000  -7.3480000
 -16.7770000 -13.5630000  -6.9150000 -17.1970000 -14.1480000  -7.4090000
 -14.1930000 -18.4300000   2.2500000 -15.0680000 -18.6870000   1.9600000
 -13.8410000 -19.2130000   2.6740000 -14.2610000 -18.5630000   2.2670000
 -11.1700000 -13.1900000  -5.9510000 -11.0490000 -12.3150000  -6.3190000
 -10.9610000 -13.7840000  -6.6720000 -11.1290000 -13.1540000  -6.0910000
 -16.7230000 -13.9060000   7.1830000 -16.1410000 -14.0700000   7.9240000
 -17.3160000 -13.2190000   7.4910000 -16.7250000 -13.8390000   7.3170000
  -7.0080000 -20.5250000  -1.6940000  -6.9940000 -20.8380000  -0.7890000
  -7.0570000 -19.5720000  -1.6170000  -7.0130000 -20.4430000  -1.5680000
 -11.4440000 -19.6240000  -7.8100000 -11.9000000 -19.8650000  -7.0040000
 -10.5170000 -19.7640000  -7.6110000 -11.3840000 -19.6730000  -7.6810000
 -12.6990000 -13.0040000   4.0280000 -13.0510000 -13.1070000   4.9130000
 -12.5510000 -12.0620000   3.9380000 -12.7250000 -12.8970000   4.1300000
 -10.5620000 -11.2360000   5.9070000 -10.3640000 -11.6320000   6.7570000
 -11.2340000 -10.5820000   6.0980000 -10.6240000 -11.2040000   6.0400000
 -15.2440000 -18.4580000   5.3200000 -15.8010000 -18.8520000   4.6480000
 -15.8200000 -17.8480000   5.7800000 -15.3890000 -18.4300000   5.2930000
 -11.3310000 -19.1970000   8.5140000 -12.1530000 -18.8570000   8.1650000
 -11.4740000 -19.2530000   9.4590000 -11.4540000 -19.1610000   8.5900000
 -15.3990000 -17.3700000  -1.5990000 -14.8540000 -16.8690000  -0.9920000
 -16.0920000 -16.7630000  -1.8560000 -15.4170000 -17.2290000  -1.5540000
 -12.6940000 -20.1240000  -5.4060000 -12.7370000 -19.5050000  -4.6760000
 -13.0600000 -20.9350000  -5.0540000 -12.7460000 -20.1480000  -5.2670000
 -17.9450000 -19.2600000  -4.9270000 -18.6170000 -19.9410000  -4.8970000
 -17.8650000 -19.0430000  -5.8560000 -18.0200000 -19.3190000  -5.0420000
 -16.7590000 -10.2810000   4.1910000 -17.3080000 -10.3500000   3.4110000
 -16.3940000 -11.1580000   4.3070000 -16.7810000 -10.4020000   4.1060000
 -13.9290000 -19.1140000   7.7020000 -14.6200000 -19.7540000   7.8700000
 -14.1380000 -18.7580000   6.8390000 -14.0440000 -19.1510000   7.6130000
 -18.0520000 -13.1560000   1.4300000 -18.1150000 -13.6760000   2.2320000
 -17.5070000 -12.4070000   1.6730000 -17.9900000 -13.1260000   1.5640000
 -12.5520000 -14.2600000  -1.9510000 -13.4670000 -14.2500000  -2.2340000
 -12.4300000 -15.1280000  -1.5660000 -12.6540000 -14.3690000  -1.9380000
 -13.5920000 -21.4390000  -8.7010000 -13.1140000 -21.7920000  -9.4500000
 -13.0900000 -20.6670000  -8.4380000 -13.4670000 -21.3850000  -8.7630000
 -15.6520000 -20.2240000  -1.5880000 -15.1540000 -20.4310000  -2.3790000
 -15.4690000 -19.2990000  -1.4240000 -15.5650000 -20.1320000  -1.6680000
 -10.9650000  -9.4520000   0.4800000 -11.1110000 -10.3950000   0.5610000
 -10.3110000  -9.2540000   1.1510000 -10.8990000  -9.5480000   0.5760000
  -9.6320000 -13.1740000  -0.7340000 -10.4750000 -12.7610000  -0.5500000
  -9.7640000 -14.0960000  -0.5160000  -9.7570000 -13.2390000  -0.6830000
 -18.3320000 -19.6280000  -0.9650000 -18.7390000 -18.8680000  -1.3810000
 -17.4700000 -19.6930000  -1.3750000 -18.2740000 -19.5390000  -1.0710000
 -13.7940000 -18.3890000  -3.4830000 -13.1200000 -17.9770000  -2.9430000
 -14.6040000 -17.9430000  -3.2370000 -13.8110000 -18.2790000  -3.3830000
 -10.1720000 -18.9600000   1.5030000 -10.5610000 -19.4340000   2.2390000
 -10.7070000 -18.1710000   1.4170000 -10.2900000 -18.9200000   1.5860000
 -18.2630000 -14.5350000   3.8680000 -17.8700000 -13.7140000   4.1640000
 -19.1770000 -14.4800000   4.1500000 -18.3300000 -14.4230000   3.9420000
 -13.0390000 -21.2510000   3.0170000 -13.3040000 -21.9030000   3.6670000
 -12.8200000 -21.7640000   2.2390000 -13.0450000 -21.4000000   3.0010000
 -19.8440000 -14.2510000  -8.4750000 -19.0000000 -14.2890000  -8.0240000
 -19.6200000 -14.0460000  -9.3830000 -19.7070000 -14.2300000  -8.5330000
 -15.4810000 -14.0060000   0.2530000 -15.3830000 -13.7590000  -0.6670000
 -16.3340000 -13.6560000   0.5050000 -15.5770000 -13.9300000   0.1680000
 -18.0900000  -9.5920000  -2.4080000 -18.2750000 -10.4190000  -2.8540000
 -18.4030000  -8.9190000  -3.0130000 -18.1550000  -9.6120000  -2.5430000
 -16.5020000 -10.3570000  -9.3180000 -16.3440000  -9.5180000  -9.7510000
 -16.2400000 -10.2100000  -8.4090000 -16.4490000 -10.2310000  -9.2570000
 -14.3920000 -11.5800000   0.7920000 -14.9360000 -10.9800000   0.2810000
 -14.7840000 -12.4410000   0.6460000 -14.5110000 -11.6130000   0.7080000
 -10.6170000 -20.1710000   4.4150000 -11.5140000 -20.4950000   4.3280000
 -10.7180000 -19.2760000   4.7400000 -10.7450000 -20.0980000   4.4460000
 -20.3010000  -9.2120000  -0.2350000 -20.3350000  -9.8990000   0.4300000
 -19.8250000  -9.6070000  -0.9650000 -20.2450000  -9.3500000  -0.2430000
 -18.4210000 -18.4840000  -7.5470000 -17.6910000 -17.8640000  -7.5580000
 -19.2030000 -17.9330000  -7.5780000 -18.4290000 -18.3340000  -7.5530000
 -18.7900000 -21.1030000   1.5690000 -19.2390000 -21.8570000   1.9510000
 -18.0670000 -21.4830000   1.0690000 -18.7550000 -21.2480000   1.5540000
 -17.2550000 -16.9790000   3.2810000 -17.5310000 -16.1550000   3.6830000
 -16.3040000 -16.9920000   3.3900000 -17.1670000 -16.8750000   3.3460000
 -17.8990000  -9.7560000   1.5300000 -17.1090000  -9.2180000   1.4760000
 -18.4990000  -9.3640000   0.8960000 -17.8750000  -9.6370000   1.4420000
 -14.9090000 -11.1260000  -3.6180000 -15.2760000 -10.5450000  -2.9530000
 -14.0170000 -10.8030000  -3.7520000 -14.8410000 -11.0100000  -3.5500000
 -16.8040000 -18.6890000   1.3670000 -17.0710000 -18.0460000   2.0240000
 -17.6020000 -18.8700000   0.8710000 -16.9400000 -18.6300000   1.3870000
 -16.8270000 -20.3550000   3.9290000 -16.9900000 -20.0460000   3.0380000
 -17.6880000 -20.6190000   4.2520000 -16.9580000 -20.3490000   3.8570000
 -16.8940000 -16.6920000   6.4650000 -17.7130000 -16.8480000   5.9940000
 -16.8460000 -15.7400000   6.5540000 -16.9930000 -16.5900000   6.4160000
 -11.0710000 -10.7190000   3.2650000 -10.7890000 -10.8150000   4.1750000
 -11.8530000 -10.1680000   3.3140000 -11.1360000 -10.6610000   3.3880000
 -11.1500000 -11.9410000  -3.3000000 -11.0810000 -12.5700000  -2.5830000
 -11.0840000 -12.4730000  -4.0930000 -11.1340000 -12.0890000  -3.3100000
 -18.5020000 -20.7850000  -9.5300000 -18.5220000 -20.1360000  -8.8280000
 -18.1470000 -21.5740000  -9.1180000 -18.4600000 -20.8030000  -9.3880000
 -16.5400000 -11.9070000  -5.6600000 -17.2260000 -11.9790000  -4.9950000
 -15.7420000 -11.7290000  -5.1630000 -16.5270000 -11.8940000  -5.5110000
 -15.5310000 -12.9350000  -9.4130000 -15.9310000 -12.0670000  -9.3630000
 -16.0080000 -13.4560000  -8.7660000 -15.6440000 -12.8900000  -9.3240000
 -16.2750000 -12.9430000   4.6480000 -16.4770000 -13.2530000   5.5300000
 -15.7610000 -13.6510000   4.2580000 -16.2340000 -13.0740000   4.7110000
 -13.6290000 -15.3410000   7.2950000 -14.2690000 -15.8740000   7.7670000
 -13.6670000 -15.6640000   6.3940000 -13.7160000 -15.4510000   7.2400000
 -19.8620000 -12.9730000   7.4300000 -20.2500000 -13.3380000   6.6340000
 -20.5100000 -12.3440000   7.7450000 -19.9950000 -12.9400000   7.3690000
 -10.9620000 -17.5040000   5.1120000 -11.8540000 -17.2880000   5.3900000
 -10.6860000 -16.7510000   4.5900000 -11.0410000 -17.3800000   5.0810000
 -11.8940000 -15.4820000  -4.4560000 -11.8730000 -15.3660000  -3.5060000
 -11.7210000 -14.6090000  -4.8070000 -11.8690000 -15.3550000  -4.3790000
 -12.5190000  -9.5420000  -4.1490000 -12.7840000  -9.5770000  -5.0680000
 -11.8970000 -10.2630000  -4.0500000 -12.4740000  -9.6390000  -4.2540000
 -15.3450000  -9.5460000  -6.6380000 -15.8620000 -10.2310000  -6.2120000
 -15.8280000  -8.7390000  -6.4640000 -15.4740000  -9.5310000  -6.5610000
 -15.6090000  -8.0030000   1.6630000 -14.8340000  -8.1590000   1.1240000
 -15.6390000  -7.0520000   1.7690000 -15.5140000  -7.9010000   1.6080000
 -19.0390000 -11.5910000  -4.1080000 -19.2770000 -12.4040000  -3.6640000
 -19.8440000 -11.3130000  -4.5450000 -19.1710000 -11.6590000  -4.1070000
 -13.8450000 -12.1710000   7.1990000 -13.5760000 -13.0750000   7.3590000
 -14.7980000 -12.1840000   7.3000000 -13.9330000 -12.2880000   7.2330000
 -13.5360000 -16.4650000   4.8960000 -14.1450000 -17.2010000   4.9520000
 -13.9670000 -15.8410000   4.3130000 -13.6680000 -16.4800000   4.8290000
 -15.5740000 -20.6850000  -4.1390000 -14.9530000 -20.2410000  -4.7180000
 -16.3840000 -20.1810000  -4.2240000 -15.5980000 -20.5630000  -4.2240000
 -14.6800000 -14.6060000   2.9150000 -14.8540000 -14.6830000   1.9770000
 -13.8970000 -14.0590000   2.9700000 -14.6020000 -14.5460000   2.8020000
 -19.8620000 -18.2220000  -2.7660000 -19.3490000 -18.8220000  -3.3060000
 -20.1370000 -17.5320000  -3.3700000 -19.8330000 -18.2110000  -2.9120000
 -12.8340000  -9.6550000   6.5250000 -12.4260000  -9.4830000   7.3730000
 -13.1040000 -10.5720000   6.5700000 -12.8160000  -9.7500000   6.6390000
 -10.1670000 -10.3630000  -6.4770000  -9.5810000 -10.5400000  -7.2120000
 -10.7590000  -9.6830000  -6.8010000 -10.1680000 -10.2990000  -6.6130000
 -10.3280000 -12.0080000   8.5180000 -11.0990000 -11.9770000   9.0820000
  -9.7100000 -11.3980000   8.9240000 -10.3470000 -11.9260000   8.6430000
 -15.4260000 -16.8810000   8.5870000 -16.2370000 -16.8430000   8.0800000
 -15.0620000 -17.7440000   8.3920000 -15.4840000 -16.9860000   8.4970000
 -12.1120000 -17.1510000  -1.4920000 -11.2600000 -17.4920000  -1.7620000
 -12.0910000 -17.1800000  -0.5360000 -12.0010000 -17.1990000  -1.4050000
 -19.1830000 -20.2400000   6.4130000 -19.9370000 -20.5700000   5.9240000
 -19.3840000 -20.4380000   7.3270000 -19.3040000 -20.3080000   6.4670000
 -15.6330000 -20.9170000   8.4820000 -16.4170000 -20.9560000   9.0300000
 -14.9950000 -21.4680000   8.9360000 -15.6510000 -20.9920000   8.6100000
 -13.9660000 -16.4800000  -6.2770000 -13.5700000 -16.1390000  -5.4750000
 -13.4760000 -16.0610000  -6.9840000 -13.8540000 -16.3830000  -6.2650000
 -14.2380000 -22.3940000   5.6850000 -13.5440000 -22.2000000   6.3170000
 -14.8740000 -21.6880000   5.8030000 -14.2310000 -22.2790000   5.7810000
 -13.7720000 -10.1240000   3.1600000 -14.2450000  -9.2910000   3.1530000
 -14.3040000 -10.7050000   2.6160000 -13.9010000 -10.0920000   3.0900000
 -17.0520000 -21.8350000 -12.3130000 -16.4650000 -21.5220000 -11.6240000
 -17.7780000 -21.2100000 -12.3130000 -17.0700000 -21.7150000 -12.2250000
 -12.0300000 -16.9320000 -17.5300000 -11.5910000 -16.4250000 -16.8470000
 -12.7030000 -17.4290000 -17.0640000 -12.0590000 -16.9310000 -17.3830000
 -10.8160000 -15.1640000 -15.3020000 -11.5290000 -14.5590000 -15.5010000
 -10.1000000 -14.6010000 -15.0050000 -10.8140000 -15.0150000 -15.2890000
 -14.1930000 -18.4300000 -16.6100000 -15.0680000 -18.6870000 -16.9000000
 -13.8410000 -19.2130000 -16.1860000 -14.2610000 -18.5630000 -16.5930000
 -16.7230000 -13.9060000 -11.6770000 -16.1410000 -14.0700000 -10.9360000
 -17.3160000 -13.2190000 -11.3690000 -16.7250000 -13.8390000 -11.5430000
 -12.6990000 -13.0040000 -14.8320000 -13.0510000 -13.1070000 -13.9470000
 -12.5510000 -12.0620000 -14.9220000 -12.7250000 -12.8970000 -14.7300000
 -10.5620000 -11.2360000 -12.9530000 -10.3640000 -11.6320000 -12.1030000
 -11.2340000 -10.5820000 -12.7620000 -10.6240000 -11.2040000 -12.8200000
 -15.2440000 -18.4580000 -13.5400000 -15.8010000 -18.8520000 -14.2120000
 -15.8200000 -17.8480000 -13.0800000 -15.3890000 -18.4300000 -13.5670000
 -11.3310000 -19.1970000 -10.3460000 -12.1530000 -18.8570000 -10.6950000
 -11.4740000 -19.2530000  -9.4010000 -11.4540000 -19.1610000 -10.2700000
 -16.7590000 -10.2810000 -14.6690000 -17.3080000 -10.3500000 -15.4490000
 -16.3940000 -11.1580000 -14.5530000 -16.7810000 -10.4020000 -14.7540000
 -13.9290000 -19.1140000 -11.1580000 -14.6200000 -19.7540000 -10.9900000
 -14.1380000 -18.7580000 -12.0210000 -14.0440000 -19.1510000 -11.2470000
 -18.0520000 -13.1560000 -17.4300000 -18.1150000 -13.6760000 -16.6280000
 -17.5070000 -12.4070000 -17.1870000 -17.9900000 -13.1260000 -17.2960000
 -10.9650000  -9.4520000 -18.3800000 -11.1110000 -10.3950000 -18.2990000
 -10.3110000  -9.2540000 -17.7090000 -10.8990000  -9.5480000 -18.2840000
  -9.6320000 -13.1740000 -19.5940000 -10.4750000 -12.7610000 -19.4100000
  -9.7640000 -14.0960000 -19.3760000  -9.7570000 -13.2390000 -19.5430000
 -10.1720000 -18.9600000 -17.3570000 -10.5610000 -19.4340000 -16.6210000
 -10.7070000 -18.1710000 -17.4430000 -10.2900000 -18.9200000 -17.2740000
 -18.2630000 -14.5350000 -14.9920000 -17.8700000 -13.7140000 -14.6960000
 -19.1770000 -14.4800000 -14.7100000 -18.3300000 -14.4230000 -14.9180000
 -13.0390000 -21.2510000 -15.8430000 -13.3040000 -21.9030000 -15.1930000
 -12.8200000 -21.7640000 -16.6210000 -13.0450000 -21.4000000 -15.8590000
 -15.4810000 -14.0060000 -18.6070000 -15.3830000 -13.7590000 -19.5270000
 -16.3340000 -13.6560000 -18.3550000 -15.5770000 -13.9300000 -18.6920000
 -14.3920000 -11.5800000 -18.0680000 -14.9360000 -10.9800000 -18.5790000
 -14.7840000 -12.4410000 -18.2140000 -14.5110000 -11.6130000 -18.1520000
 -10.6170000 -20.1710000 -14.4450000 -11.5140000 -20.4950000 -14.5320000
 -10.7180000 -19.2760000 -14.1200000 -10.7450000 -20.0980000 -14.4140000
 -18.7900000 -21.1030000 -17.2910000 -19.2390000 -21.8570000 -16.9090000
 -18.0670000 -21.4830000 -17.7910000 -18.7550000 -21.2480000 -17.3060000
 -17.2550000 -16.9790000 -15.5790000 -17.5310000 -16.1550000 -15.1770000
 -16.3040000 -16.9920000 -15.4700000 -17.1670000 -16.8750000 -15.5140000
 -17.8990000  -9.7560000 -17.3300000 -17.1090000  -9.2180000 -17.3840000
 -18.4990000  -9.3640000 -17.9640000 -17.8750000  -9.6370000 -17.4180000
 -16.8040000 -18.6890000 -17.4930000 -17.0710000 -18.0460000 -16.8360000
 -17.6020000 -18.8700000 -17.9890000 -16.9400000 -18.6300000 -17.4730000
 -16.8270000 -20.3550000 -14.9310000 -16.9900000 -20.0460000 -15.8220000
 -17.6880000 -20.6190000 -14.6080000 -16.9580000 -20.3490000 -15.0030000
 -16.8940000 -16.6920000 -12.3950000 -17.7130000 -16.8480000 -12.8660000
 -16.8460000 -15.7400000 -12.3060000 -16.9930000 -16.5900000 -12.4440000
 -11.0710000 -10.7190000 -15.5950000 -10.7890000 -10.8150000 -14.6850000
 -11.8530000 -10.1680000 -15.5460000 -11.1360000 -10.6610000 -15.4720000
 -16.2750000 -12.9430000 -14.2120000 -16.4770000 -13.2530000 -13.3300000
 -15.7610000 -13.6510000 -14.6020000 -16.2340000 -13.0740000 -14.1490000
 -13.6290000 -15.3410000 -11.5650000 -14.2690000 -15.8740000 -11.0930000
 -13.6670000 -15.6640000 -12.4660000 -13.7160000 -15.4510000 -11.6200000
 -19.8620000 -12.9730000 -11.4300000 -20.2500000 -13.3380000 -12.2260000
 -20.5100000 -12.3440000 -11.1150000 -19.9950000 -12.9400000 -11.4910000
 -10.9620000 -17.5040000 -13.7480000 -11.8540000 -17.2880000 -13.4700000
 -10.6860000 -16.7510000 -14.2700000 -11.0410000 -17.3800000 -13.7790000
 -15.6090000  -8.0030000 -17.1970000 -14.8340000  -8.1590000 -17.7360000
 -15.6390000  -7.0520000 -17.0910000 -15.5140000  -7.9010000 -17.2520000
 -13.8450000 -12.1710000 -11.6610000 -13.5760000 -13.0750000 -11.5010000
 -14.7980000 -12.1840000 -11.5600000 -13.9330000 -12.2880000 -11.6270000
 -13.5360000 -16.4650000 -13.9640000 -14.1450000 -17.2010000 -13.9080000
 -13.9670000 -15.8410000 -14.5470000 -13.6680000 -16.4800000 -14.0310000
 -14.6800000 -14.6060000 -15.9450000 -14.8540000 -14.6830000 -16.8830000
 -13.8970000 -14.0590000 -15.8900000 -14.6020000 -14.5460000 -16.0580000
 -12.8340000  -9.6550000 -12.3350000 -12.4260000  -9.4830000 -11.4870000
 -13.1040000 -10.5720000 -12.2900000 -12.8160000  -9.7500000 -12.2210000
 -10.3280000 -12.0080000 -10.3420000 -11.0990000 -11.9770000  -9.7780000
  -9.7100000 -11.3980000  -9.9360000 -10.3470000 -11.9260000 -10.2170000
 -15.4260000 -16.8810000 -10.2730000 -16.2370000 -16.8430000 -10.7800000
 -15.0620000 -17.7440000 -10.4680000 -15.4840000 -16.9860000 -10.3630000
 -19.1830000 -20.2400000 -12.4470000 -19.9370000 -20.5700000 -12.9360000
 -19.3840000 -20.4380000 -11.5330000 -19.3040000 -20.3080000 -12.3930000
 -15.6330000 -20.9170000 -10.3780000 -16.4170000 -20.9560000  -9.8300000
 -14.9950000 -21.4680000  -9.9240000 -15.6510000 -20.9920000 -10.2500000
 -14.2380000 -22.3940000 -13.1750000 -13.5440000 -22.2000000 -12.5430000
 -14.8740000 -21.6880000 -13.0570000 -14.2310000 -22.2790000 -13.0790000
 -13.7720000 -10.1240000 -15.7000000 -14.2450000  -9.2910000 -15.7070000
 -14.3040000 -10.7050000 -16.2440000 -13.9010000 -10.0920000 -15.7700000
